INSANE! Membrane UpperLeaflet>DPPC=1.0 LowerLeaflet>DPPC=1.0
 6853
    1DPPC   NC3    1   3.503   5.922   5.950
    1DPPC   PO4    2   3.495   5.924   5.650
    1DPPC   GL1    3   3.455   5.976   5.350
    1DPPC   GL2    4   3.506   5.808   5.350
    1DPPC   C1A    5   3.485   5.944   5.050
    1DPPC   C2A    6   3.518   5.963   4.750
    1DPPC   C3A    7   3.499   5.900   4.450
    1DPPC   C4A    8   3.451   5.899   4.150
    1DPPC   C1B    9   3.501   5.713   5.050
    1DPPC   C2B   10   3.527   5.683   4.750
    1DPPC   C3B   11   3.532   5.658   4.450
    1DPPC   C4B   12   3.558   5.709   4.150
    2DPPC   NC3   13   1.287   5.793   5.950
    2DPPC   PO4   14   1.371   5.812   5.650
    2DPPC   GL1   15   1.330   5.833   5.350
    2DPPC   GL2   16   1.215   5.788   5.350
    2DPPC   C1A   17   1.294   5.862   5.050
    2DPPC   C2A   18   1.321   5.805   4.750
    2DPPC   C3A   19   1.300   5.843   4.450
    2DPPC   C4A   20   1.318   5.857   4.150
    2DPPC   C1B   21   1.077   5.855   5.050
    2DPPC   C2B   22   1.067   5.761   4.750
    2DPPC   C3B   23   1.070   5.788   4.450
    2DPPC   C4B   24   1.043   5.800   4.150
    3DPPC   NC3   25   8.951   1.889   5.950
    3DPPC   PO4   26   8.965   1.835   5.650
    3DPPC   GL1   27   8.970   1.865   5.350
    3DPPC   GL2   28   8.864   2.015   5.350
    3DPPC   C1A   29   8.919   1.832   5.050
    3DPPC   C2A   30   8.872   1.852   4.750
    3DPPC   C3A   31   8.945   1.839   4.450
    3DPPC   C4A   32   8.953   1.866   4.150
    3DPPC   C1B   33   8.832   2.133   5.050
    3DPPC   C2B   34   8.881   2.109   4.750
    3DPPC   C3B   35   8.845   2.112   4.450
    3DPPC   C4B   36   8.892   2.079   4.150
    4DPPC   NC3   37   6.715   5.109   5.950
    4DPPC   PO4   38   6.710   5.106   5.650
    4DPPC   GL1   39   6.676   5.088   5.350
    4DPPC   GL2   40   6.553   5.038   5.350
    4DPPC   C1A   41   6.700   5.113   5.050
    4DPPC   C2A   42   6.672   5.126   4.750
    4DPPC   C3A   43   6.718   5.051   4.450
    4DPPC   C4A   44   6.720   5.112   4.150
    4DPPC   C1B   45   6.468   4.988   5.050
    4DPPC   C2B   46   6.435   5.042   4.750
    4DPPC   C3B   47   6.456   4.992   4.450
    4DPPC   C4B   48   6.487   4.981   4.150
    5DPPC   NC3   49   5.173   0.374   5.950
    5DPPC   PO4   50   5.157   0.364   5.650
    5DPPC   GL1   51   5.120   0.327   5.350
    5DPPC   GL2   52   5.016   0.417   5.350
    5DPPC   C1A   53   5.087   0.343   5.050
    5DPPC   C2A   54   5.091   0.310   4.750
    5DPPC   C3A   55   5.093   0.285   4.450
    5DPPC   C4A   56   5.081   0.288   4.150
    5DPPC   C1B   57   4.994   0.546   5.050
    5DPPC   C2B   58   5.015   0.550   4.750
    5DPPC   C3B   59   4.939   0.499   4.450
    5DPPC   C4B   60   4.982   0.580   4.150
    6DPPC   NC3   61   7.250   9.591   5.950
    6DPPC   PO4   62   7.268   9.626   5.650
    6DPPC   GL1   63   7.201   9.585   5.350
    6DPPC   GL2   64   7.309   9.665   5.350
    6DPPC   C1A   65   7.206   9.659   5.050
    6DPPC   C2A   66   7.248   9.676   4.750
    6DPPC   C3A   67   7.255   9.612   4.450
    6DPPC   C4A   68   7.199   9.615   4.150
    6DPPC   C1B   69   7.520   9.721   5.050
    6DPPC   C2B   70   7.497   9.736   4.750
    6DPPC   C3B   71   7.509   9.707   4.450
    6DPPC   C4B   72   7.432   9.690   4.150
    7DPPC   NC3   73   3.552   6.447   5.950
    7DPPC   PO4   74   3.599   6.436   5.650
    7DPPC   GL1   75   3.594   6.500   5.350
    7DPPC   GL2   76   3.492   6.553   5.350
    7DPPC   C1A   77   3.620   6.445   5.050
    7DPPC   C2A   78   3.592   6.491   4.750
    7DPPC   C3A   79   3.535   6.468   4.450
    7DPPC   C4A   80   3.553   6.449   4.150
    7DPPC   C1B   81   3.474   6.719   5.050
    7DPPC   C2B   82   3.455   6.699   4.750
    7DPPC   C3B   83   3.401   6.728   4.450
    7DPPC   C4B   84   3.450   6.711   4.150
    8DPPC   NC3   85   9.749   1.343   5.950
    8DPPC   PO4   86   9.797   1.341   5.650
    8DPPC   GL1   87   9.793   1.328   5.350
    8DPPC   GL2   88   9.653   1.190   5.350
    8DPPC   C1A   89   9.718   1.250   5.050
    8DPPC   C2A   90   9.734   1.247   4.750
    8DPPC   C3A   91   9.781   1.318   4.450
    8DPPC   C4A   92   9.724   1.320   4.150
    8DPPC   C1B   93   9.628   1.152   5.050
    8DPPC   C2B   94   9.551   1.149   4.750
    8DPPC   C3B   95   9.583   1.091   4.450
    8DPPC   C4B   96   9.541   1.066   4.150
    9DPPC   NC3   97   2.133   2.768   5.950
    9DPPC   PO4   98   2.095   2.679   5.650
    9DPPC   GL1   99   2.075   2.709   5.350
    9DPPC   GL2  100   1.985   2.788   5.350
    9DPPC   C1A  101   2.144   2.759   5.050
    9DPPC   C2A  102   2.119   2.703   4.750
    9DPPC   C3A  103   2.081   2.676   4.450
    9DPPC   C4A  104   2.094   2.707   4.150
    9DPPC   C1B  105   1.818   2.717   5.050
    9DPPC   C2B  106   1.861   2.726   4.750
    9DPPC   C3B  107   1.869   2.769   4.450
    9DPPC   C4B  108   1.897   2.792   4.150
   10DPPC   NC3  109   0.539   2.691   5.950
   10DPPC   PO4  110   0.525   2.713   5.650
   10DPPC   GL1  111   0.538   2.730   5.350
   10DPPC   GL2  112   0.443   2.750   5.350
   10DPPC   C1A  113   0.580   2.719   5.050
   10DPPC   C2A  114   0.540   2.646   4.750
   10DPPC   C3A  115   0.599   2.660   4.450
   10DPPC   C4A  116   0.553   2.657   4.150
   10DPPC   C1B  117   0.354   2.764   5.050
   10DPPC   C2B  118   0.328   2.747   4.750
   10DPPC   C3B  119   0.349   2.813   4.450
   10DPPC   C4B  120   0.288   2.824   4.150
   11DPPC   NC3  121   9.734   9.535   5.950
   11DPPC   PO4  122   9.727   9.581   5.650
   11DPPC   GL1  123   9.688   9.509   5.350
   11DPPC   GL2  124   9.696   9.649   5.350
   11DPPC   C1A  125   9.739   9.544   5.050
   11DPPC   C2A  126   9.699   9.510   4.750
   11DPPC   C3A  127   9.738   9.604   4.450
   11DPPC   C4A  128   9.744   9.607   4.150
   11DPPC   C1B  129   9.607   9.789   5.050
   11DPPC   C2B  130   9.575   9.767   4.750
   11DPPC   C3B  131   9.625   9.816   4.450
   11DPPC   C4B  132   9.555   9.733   4.150
   12DPPC   NC3  133   0.559   1.234   5.950
   12DPPC   PO4  134   0.511   1.224   5.650
   12DPPC   GL1  135   0.504   1.258   5.350
   12DPPC   GL2  136   0.402   1.154   5.350
   12DPPC   C1A  137   0.540   1.226   5.050
   12DPPC   C2A  138   0.561   1.280   4.750
   12DPPC   C3A  139   0.580   1.286   4.450
   12DPPC   C4A  140   0.569   1.309   4.150
   12DPPC   C1B  141   0.349   1.107   5.050
   12DPPC   C2B  142   0.321   1.163   4.750
   12DPPC   C3B  143   0.328   1.189   4.450
   12DPPC   C4B  144   0.296   1.186   4.150
   13DPPC   NC3  145   2.768   6.430   5.950
   13DPPC   PO4  146   2.728   6.499   5.650
   13DPPC   GL1  147   2.755   6.469   5.350
   13DPPC   GL2  148   2.773   6.604   5.350
   13DPPC   C1A  149   2.785   6.510   5.050
   13DPPC   C2A  150   2.721   6.445   4.750
   13DPPC   C3A  151   2.788   6.434   4.450
   13DPPC   C4A  152   2.781   6.491   4.150
   13DPPC   C1B  153   2.708   6.697   5.050
   13DPPC   C2B  154   2.741   6.683   4.750
   13DPPC   C3B  155   2.750   6.705   4.450
   13DPPC   C4B  156   2.697   6.754   4.150
   14DPPC   NC3  157   8.976   0.409   5.950
   14DPPC   PO4  158   9.013   0.392   5.650
   14DPPC   GL1  159   9.041   0.434   5.350
   14DPPC   GL2  160   8.905   0.458   5.350
   14DPPC   C1A  161   9.058   0.368   5.050
   14DPPC   C2A  162   9.056   0.411   4.750
   14DPPC   C3A  163   8.985   0.395   4.450
   14DPPC   C4A  164   9.050   0.362   4.150
   14DPPC   C1B  165   8.797   0.484   5.050
   14DPPC   C2B  166   8.810   0.487   4.750
   14DPPC   C3B  167   8.816   0.520   4.450
   14DPPC   C4B  168   8.809   0.430   4.150
   15DPPC   NC3  169   5.937   5.042   5.950
   15DPPC   PO4  170   5.934   5.030   5.650
   15DPPC   GL1  171   5.950   5.022   5.350
   15DPPC   GL2  172   5.818   5.051   5.350
   15DPPC   C1A  173   5.945   5.021   5.050
   15DPPC   C2A  174   5.904   5.016   4.750
   15DPPC   C3A  175   5.950   4.984   4.450
   15DPPC   C4A  176   5.909   5.028   4.150
   15DPPC   C1B  177   5.751   5.113   5.050
   15DPPC   C2B  178   5.679   5.129   4.750
   15DPPC   C3B  179   5.727   5.089   4.450
   15DPPC   C4B  180   5.707   5.118   4.150
   16DPPC   NC3  181   4.382   4.946   5.950
   16DPPC   PO4  182   4.344   4.919   5.650
   16DPPC   GL1  183   4.351   4.992   5.350
   16DPPC   GL2  184   4.241   5.099   5.350
   16DPPC   C1A  185   4.390   4.943   5.050
   16DPPC   C2A  186   4.388   4.978   4.750
   16DPPC   C3A  187   4.307   4.917   4.450
   16DPPC   C4A  188   4.366   4.991   4.150
   16DPPC   C1B  189   4.239   5.121   5.050
   16DPPC   C2B  190   4.265   5.113   4.750
   16DPPC   C3B  191   4.228   5.161   4.450
   16DPPC   C4B  192   4.231   5.181   4.150
   17DPPC   NC3  193   0.534   7.406   5.950
   17DPPC   PO4  194   0.578   7.331   5.650
   17DPPC   GL1  195   0.583   7.372   5.350
   17DPPC   GL2  196   0.470   7.376   5.350
   17DPPC   C1A  197   0.568   7.362   5.050
   17DPPC   C2A  198   0.584   7.391   4.750
   17DPPC   C3A  199   0.581   7.392   4.450
   17DPPC   C4A  200   0.549   7.335   4.150
   17DPPC   C1B  201   0.342   7.302   5.050
   17DPPC   C2B  202   0.339   7.366   4.750
   17DPPC   C3B  203   0.325   7.344   4.450
   17DPPC   C4B  204   0.351   7.313   4.150
   18DPPC   NC3  205   2.630   1.879   5.950
   18DPPC   PO4  206   2.598   1.964   5.650
   18DPPC   GL1  207   2.583   1.919   5.350
   18DPPC   GL2  208   2.750   1.948   5.350
   18DPPC   C1A  209   2.654   1.878   5.050
   18DPPC   C2A  210   2.625   1.880   4.750
   18DPPC   C3A  211   2.612   1.885   4.450
   18DPPC   C4A  212   2.614   1.900   4.150
   18DPPC   C1B  213   2.867   2.004   5.050
   18DPPC   C2B  214   2.864   2.043   4.750
   18DPPC   C3B  215   2.827   2.076   4.450
   18DPPC   C4B  216   2.895   2.041   4.150
   19DPPC   NC3  217   9.661   7.475   5.950
   19DPPC   PO4  218   9.678   7.487   5.650
   19DPPC   GL1  219   9.642   7.465   5.350
   19DPPC   GL2  220   9.615   7.316   5.350
   19DPPC   C1A  221   9.611   7.439   5.050
   19DPPC   C2A  222   9.661   7.499   4.750
   19DPPC   C3A  223   9.694   7.451   4.450
   19DPPC   C4A  224   9.618   7.449   4.150
   19DPPC   C1B  225   9.654   7.184   5.050
   19DPPC   C2B  226   9.670   7.238   4.750
   19DPPC   C3B  227   9.652   7.281   4.450
   19DPPC   C4B  228   9.641   7.249   4.150
   20DPPC   NC3  229   4.934   2.734   5.950
   20DPPC   PO4  230   4.897   2.706   5.650
   20DPPC   GL1  231   4.962   2.703   5.350
   20DPPC   GL2  232   5.093   2.717   5.350
   20DPPC   C1A  233   4.947   2.708   5.050
   20DPPC   C2A  234   4.875   2.707   4.750
   20DPPC   C3A  235   4.915   2.752   4.450
   20DPPC   C4A  236   4.898   2.746   4.150
   20DPPC   C1B  237   5.157   2.734   5.050
   20DPPC   C2B  238   5.216   2.796   4.750
   20DPPC   C3B  239   5.159   2.779   4.450
   20DPPC   C4B  240   5.224   2.729   4.150
   21DPPC   NC3  241   1.147   2.626   5.950
   21DPPC   PO4  242   1.140   2.636   5.650
   21DPPC   GL1  243   1.225   2.601   5.350
   21DPPC   GL2  244   1.189   2.760   5.350
   21DPPC   C1A  245   1.198   2.656   5.050
   21DPPC   C2A  246   1.141   2.643   4.750
   21DPPC   C3A  247   1.162   2.654   4.450
   21DPPC   C4A  248   1.206   2.623   4.150
   21DPPC   C1B  249   1.235   2.848   5.050
   21DPPC   C2B  250   1.193   2.873   4.750
   21DPPC   C3B  251   1.193   2.890   4.450
   21DPPC   C4B  252   1.225   2.893   4.150
   22DPPC   NC3  253   8.973   2.687   5.950
   22DPPC   PO4  254   8.934   2.622   5.650
   22DPPC   GL1  255   8.996   2.684   5.350
   22DPPC   GL2  256   8.939   2.756   5.350
   22DPPC   C1A  257   9.004   2.623   5.050
   22DPPC   C2A  258   8.972   2.613   4.750
   22DPPC   C3A  259   8.987   2.683   4.450
   22DPPC   C4A  260   8.982   2.619   4.150
   22DPPC   C1B  261   8.853   2.812   5.050
   22DPPC   C2B  262   8.853   2.863   4.750
   22DPPC   C3B  263   8.797   2.801   4.450
   22DPPC   C4B  264   8.775   2.797   4.150
   23DPPC   NC3  265   0.463   6.428   5.950
   23DPPC   PO4  266   0.460   6.504   5.650
   23DPPC   GL1  267   0.443   6.444   5.350
   23DPPC   GL2  268   0.402   6.577   5.350
   23DPPC   C1A  269   0.474   6.511   5.050
   23DPPC   C2A  270   0.483   6.455   4.750
   23DPPC   C3A  271   0.389   6.447   4.450
   23DPPC   C4A  272   0.429   6.494   4.150
   23DPPC   C1B  273   0.451   6.710   5.050
   23DPPC   C2B  274   0.437   6.716   4.750
   23DPPC   C3B  275   0.403   6.713   4.450
   23DPPC   C4B  276   0.425   6.693   4.150
   24DPPC   NC3  277   5.803   7.502   5.950
   24DPPC   PO4  278   5.764   7.498   5.650
   24DPPC   GL1  279   5.811   7.455   5.350
   24DPPC   GL2  280   5.802   7.370   5.350
   24DPPC   C1A  281   5.840   7.477   5.050
   24DPPC   C2A  282   5.767   7.445   4.750
   24DPPC   C3A  283   5.819   7.508   4.450
   24DPPC   C4A  284   5.794   7.514   4.150
   24DPPC   C1B  285   5.865   7.234   5.050
   24DPPC   C2B  286   5.809   7.185   4.750
   24DPPC   C3B  287   5.843   7.279   4.450
   24DPPC   C4B  288   5.872   7.187   4.150
   25DPPC   NC3  289   6.674   3.480   5.950
   25DPPC   PO4  290   6.698   3.419   5.650
   25DPPC   GL1  291   6.745   3.413   5.350
   25DPPC   GL2  292   6.633   3.487   5.350
   25DPPC   C1A  293   6.648   3.495   5.050
   25DPPC   C2A  294   6.689   3.498   4.750
   25DPPC   C3A  295   6.688   3.445   4.450
   25DPPC   C4A  296   6.651   3.496   4.150
   25DPPC   C1B  297   6.461   3.536   5.050
   25DPPC   C2B  298   6.461   3.547   4.750
   25DPPC   C3B  299   6.506   3.526   4.450
   25DPPC   C4B  300   6.463   3.541   4.150
   26DPPC   NC3  301   4.390   4.172   5.950
   26DPPC   PO4  302   4.363   4.224   5.650
   26DPPC   GL1  303   4.381   4.263   5.350
   26DPPC   GL2  304   4.284   4.243   5.350
   26DPPC   C1A  305   4.406   4.241   5.050
   26DPPC   C2A  306   4.389   4.240   4.750
   26DPPC   C3A  307   4.397   4.227   4.450
   26DPPC   C4A  308   4.359   4.206   4.150
   26DPPC   C1B  309   4.222   4.351   5.050
   26DPPC   C2B  310   4.164   4.301   4.750
   26DPPC   C3B  311   4.158   4.364   4.450
   26DPPC   C4B  312   4.166   4.340   4.150
   27DPPC   NC3  313   7.217   8.043   5.950
   27DPPC   PO4  314   7.274   8.108   5.650
   27DPPC   GL1  315   7.267   8.095   5.350
   27DPPC   GL2  316   7.377   8.103   5.350
   27DPPC   C1A  317   7.213   8.038   5.050
   27DPPC   C2A  318   7.287   8.092   4.750
   27DPPC   C3A  319   7.216   8.044   4.450
   27DPPC   C4A  320   7.263   8.131   4.150
   27DPPC   C1B  321   7.450   8.167   5.050
   27DPPC   C2B  322   7.516   8.157   4.750
   27DPPC   C3B  323   7.494   8.161   4.450
   27DPPC   C4B  324   7.461   8.217   4.150
   28DPPC   NC3  325   3.546   1.349   5.950
   28DPPC   PO4  326   3.538   1.376   5.650
   28DPPC   GL1  327   3.492   1.302   5.350
   28DPPC   GL2  328   3.464   1.201   5.350
   28DPPC   C1A  329   3.524   1.364   5.050
   28DPPC   C2A  330   3.515   1.326   4.750
   28DPPC   C3A  331   3.500   1.316   4.450
   28DPPC   C4A  332   3.476   1.314   4.150
   28DPPC   C1B  333   3.491   1.074   5.050
   28DPPC   C2B  334   3.490   1.069   4.750
   28DPPC   C3B  335   3.531   1.101   4.450
   28DPPC   C4B  336   3.486   1.095   4.150
   29DPPC   NC3  337   5.682   1.168   5.950
   29DPPC   PO4  338   5.673   1.236   5.650
   29DPPC   GL1  339   5.658   1.203   5.350
   29DPPC   GL2  340   5.846   1.181   5.350
   29DPPC   C1A  341   5.712   1.213   5.050
   29DPPC   C2A  342   5.698   1.240   4.750
   29DPPC   C3A  343   5.742   1.184   4.450
   29DPPC   C4A  344   5.704   1.161   4.150
   29DPPC   C1B  345   5.899   1.251   5.050
   29DPPC   C2B  346   5.950   1.221   4.750
   29DPPC   C3B  347   5.949   1.240   4.450
   29DPPC   C4B  348   5.993   1.173   4.150
   30DPPC   NC3  349   8.116   8.790   5.950
   30DPPC   PO4  350   8.092   8.788   5.650
   30DPPC   GL1  351   8.143   8.795   5.350
   30DPPC   GL2  352   8.120   8.903   5.350
   30DPPC   C1A  353   8.106   8.780   5.050
   30DPPC   C2A  354   8.157   8.751   4.750
   30DPPC   C3A  355   8.134   8.736   4.450
   30DPPC   C4A  356   8.114   8.734   4.150
   30DPPC   C1B  357   8.083   8.992   5.050
   30DPPC   C2B  358   8.160   9.043   4.750
   30DPPC   C3B  359   8.159   9.053   4.450
   30DPPC   C4B  360   8.072   9.027   4.150
   31DPPC   NC3  361   5.107   9.001   5.950
   31DPPC   PO4  362   5.167   8.991   5.650
   31DPPC   GL1  363   5.093   8.983   5.350
   31DPPC   GL2  364   5.021   8.934   5.350
   31DPPC   C1A  365   5.103   8.991   5.050
   31DPPC   C2A  366   5.115   9.042   4.750
   31DPPC   C3A  367   5.169   9.010   4.450
   31DPPC   C4A  368   5.167   8.999   4.150
   31DPPC   C1B  369   4.924   8.805   5.050
   31DPPC   C2B  370   4.979   8.814   4.750
   31DPPC   C3B  371   4.924   8.780   4.450
   31DPPC   C4B  372   5.013   8.803   4.150
   32DPPC   NC3  373   5.967   0.465   5.950
   32DPPC   PO4  374   5.963   0.478   5.650
   32DPPC   GL1  375   5.942   0.456   5.350
   32DPPC   GL2  376   5.860   0.440   5.350
   32DPPC   C1A  377   5.962   0.476   5.050
   32DPPC   C2A  378   5.938   0.474   4.750
   32DPPC   C3A  379   5.957   0.449   4.450
   32DPPC   C4A  380   5.976   0.456   4.150
   32DPPC   C1B  381   5.657   0.383   5.050
   32DPPC   C2B  382   5.697   0.437   4.750
   32DPPC   C3B  383   5.689   0.444   4.450
   32DPPC   C4B  384   5.652   0.445   4.150
   33DPPC   NC3  385   6.629   1.846   5.950
   33DPPC   PO4  386   6.689   1.844   5.650
   33DPPC   GL1  387   6.673   1.847   5.350
   33DPPC   GL2  388   6.581   1.976   5.350
   33DPPC   C1A  389   6.713   1.920   5.050
   33DPPC   C2A  390   6.647   1.845   4.750
   33DPPC   C3A  391   6.624   1.891   4.450
   33DPPC   C4A  392   6.707   1.904   4.150
   33DPPC   C1B  393   6.497   2.098   5.050
   33DPPC   C2B  394   6.545   2.052   4.750
   33DPPC   C3B  395   6.497   2.083   4.450
   33DPPC   C4B  396   6.467   2.036   4.150
   34DPPC   NC3  397   5.059   4.158   5.950
   34DPPC   PO4  398   5.126   4.148   5.650
   34DPPC   GL1  399   5.146   4.175   5.350
   34DPPC   GL2  400   5.036   4.253   5.350
   34DPPC   C1A  401   5.147   4.166   5.050
   34DPPC   C2A  402   5.125   4.189   4.750
   34DPPC   C3A  403   5.146   4.162   4.450
   34DPPC   C4A  404   5.063   4.201   4.150
   34DPPC   C1B  405   5.000   4.371   5.050
   34DPPC   C2B  406   4.963   4.397   4.750
   34DPPC   C3B  407   4.985   4.353   4.450
   34DPPC   C4B  408   5.016   4.393   4.150
   35DPPC   NC3  409   2.879   0.454   5.950
   35DPPC   PO4  410   2.862   0.479   5.650
   35DPPC   GL1  411   2.866   0.396   5.350
   35DPPC   GL2  412   2.703   0.480   5.350
   35DPPC   C1A  413   2.902   0.477   5.050
   35DPPC   C2A  414   2.874   0.486   4.750
   35DPPC   C3A  415   2.844   0.439   4.450
   35DPPC   C4A  416   2.909   0.394   4.150
   35DPPC   C1B  417   2.632   0.413   5.050
   35DPPC   C2B  418   2.630   0.416   4.750
   35DPPC   C3B  419   2.657   0.377   4.450
   35DPPC   C4B  420   2.580   0.376   4.150
   36DPPC   NC3  421   4.240   8.210   5.950
   36DPPC   PO4  422   4.221   8.294   5.650
   36DPPC   GL1  423   4.265   8.284   5.350
   36DPPC   GL2  424   4.308   8.088   5.350
   36DPPC   C1A  425   4.284   8.283   5.050
   36DPPC   C2A  426   4.264   8.232   4.750
   36DPPC   C3A  427   4.245   8.232   4.450
   36DPPC   C4A  428   4.251   8.214   4.150
   36DPPC   C1B  429   4.260   8.049   5.050
   36DPPC   C2B  430   4.297   8.016   4.750
   36DPPC   C3B  431   4.312   8.052   4.450
   36DPPC   C4B  432   4.309   8.011   4.150
   37DPPC   NC3  433   4.966   1.243   5.950
   37DPPC   PO4  434   4.942   1.218   5.650
   37DPPC   GL1  435   4.899   1.219   5.350
   37DPPC   GL2  436   5.061   1.167   5.350
   37DPPC   C1A  437   4.940   1.219   5.050
   37DPPC   C2A  438   4.963   1.223   4.750
   37DPPC   C3A  439   4.911   1.170   4.450
   37DPPC   C4A  440   4.925   1.220   4.150
   37DPPC   C1B  441   5.155   1.189   5.050
   37DPPC   C2B  442   5.131   1.169   4.750
   37DPPC   C3B  443   5.163   1.231   4.450
   37DPPC   C4B  444   5.160   1.209   4.150
   38DPPC   NC3  445   2.726   2.820   5.950
   38DPPC   PO4  446   2.796   2.853   5.650
   38DPPC   GL1  447   2.718   2.822   5.350
   38DPPC   GL2  448   2.702   2.716   5.350
   38DPPC   C1A  449   2.805   2.855   5.050
   38DPPC   C2A  450   2.734   2.881   4.750
   38DPPC   C3A  451   2.810   2.826   4.450
   38DPPC   C4A  452   2.794   2.892   4.150
   38DPPC   C1B  453   2.708   2.640   5.050
   38DPPC   C2B  454   2.712   2.641   4.750
   38DPPC   C3B  455   2.764   2.602   4.450
   38DPPC   C4B  456   2.737   2.601   4.150
   39DPPC   NC3  457   2.030   0.297   5.950
   39DPPC   PO4  458   1.968   0.332   5.650
   39DPPC   GL1  459   1.989   0.342   5.350
   39DPPC   GL2  460   1.971   0.467   5.350
   39DPPC   C1A  461   1.991   0.339   5.050
   39DPPC   C2A  462   2.035   0.349   4.750
   39DPPC   C3A  463   1.999   0.354   4.450
   39DPPC   C4A  464   1.946   0.353   4.150
   39DPPC   C1B  465   1.944   0.600   5.050
   39DPPC   C2B  466   1.995   0.539   4.750
   39DPPC   C3B  467   1.989   0.542   4.450
   39DPPC   C4B  468   1.926   0.577   4.150
   40DPPC   NC3  469   4.412   0.413   5.950
   40DPPC   PO4  470   4.432   0.441   5.650
   40DPPC   GL1  471   4.363   0.353   5.350
   40DPPC   GL2  472   4.261   0.422   5.350
   40DPPC   C1A  473   4.386   0.417   5.050
   40DPPC   C2A  474   4.367   0.396   4.750
   40DPPC   C3A  475   4.431   0.396   4.450
   40DPPC   C4A  476   4.357   0.399   4.150
   40DPPC   C1B  477   4.188   0.442   5.050
   40DPPC   C2B  478   4.162   0.464   4.750
   40DPPC   C3B  479   4.117   0.440   4.450
   40DPPC   C4B  480   4.181   0.493   4.150
   41DPPC   NC3  481   2.883   3.530   5.950
   41DPPC   PO4  482   2.897   3.556   5.650
   41DPPC   GL1  483   2.853   3.512   5.350
   41DPPC   GL2  484   2.718   3.544   5.350
   41DPPC   C1A  485   2.892   3.520   5.050
   41DPPC   C2A  486   2.913   3.500   4.750
   41DPPC   C3A  487   2.874   3.517   4.450
   41DPPC   C4A  488   2.908   3.552   4.150
   41DPPC   C1B  489   2.658   3.519   5.050
   41DPPC   C2B  490   2.577   3.534   4.750
   41DPPC   C3B  491   2.584   3.475   4.450
   41DPPC   C4B  492   2.655   3.530   4.150
   42DPPC   NC3  493   5.089   1.850   5.950
   42DPPC   PO4  494   5.008   1.870   5.650
   42DPPC   GL1  495   5.044   1.805   5.350
   42DPPC   GL2  496   5.007   2.017   5.350
   42DPPC   C1A  497   5.076   1.883   5.050
   42DPPC   C2A  498   5.095   1.885   4.750
   42DPPC   C3A  499   5.064   1.839   4.450
   42DPPC   C4A  500   5.049   1.826   4.150
   42DPPC   C1B  501   4.998   2.075   5.050
   42DPPC   C2B  502   5.092   2.092   4.750
   42DPPC   C3B  503   5.028   2.120   4.450
   42DPPC   C4B  504   5.062   2.112   4.150
   43DPPC   NC3  505   7.218   3.464   5.950
   43DPPC   PO4  506   7.263   3.490   5.650
   43DPPC   GL1  507   7.248   3.457   5.350
   43DPPC   GL2  508   7.330   3.498   5.350
   43DPPC   C1A  509   7.253   3.483   5.050
   43DPPC   C2A  510   7.264   3.473   4.750
   43DPPC   C3A  511   7.207   3.508   4.450
   43DPPC   C4A  512   7.272   3.536   4.150
   43DPPC   C1B  513   7.500   3.488   5.050
   43DPPC   C2B  514   7.468   3.518   4.750
   43DPPC   C3B  515   7.520   3.534   4.450
   43DPPC   C4B  516   7.457   3.568   4.150
   44DPPC   NC3  517   3.564   8.772   5.950
   44DPPC   PO4  518   3.561   8.831   5.650
   44DPPC   GL1  519   3.553   8.846   5.350
   44DPPC   GL2  520   3.506   8.857   5.350
   44DPPC   C1A  521   3.615   8.855   5.050
   44DPPC   C2A  522   3.575   8.761   4.750
   44DPPC   C3A  523   3.584   8.791   4.450
   44DPPC   C4A  524   3.575   8.794   4.150
   44DPPC   C1B  525   3.450   8.990   5.050
   44DPPC   C2B  526   3.401   8.966   4.750
   44DPPC   C3B  527   3.471   8.956   4.450
   44DPPC   C4B  528   3.403   8.943   4.150
   45DPPC   NC3  529   8.209   1.998   5.950
   45DPPC   PO4  530   8.266   1.997   5.650
   45DPPC   GL1  531   8.270   2.028   5.350
   45DPPC   GL2  532   8.101   1.988   5.350
   45DPPC   C1A  533   8.248   2.031   5.050
   45DPPC   C2A  534   8.237   1.942   4.750
   45DPPC   C3A  535   8.256   1.940   4.450
   45DPPC   C4A  536   8.274   2.031   4.150
   45DPPC   C1B  537   8.038   2.012   5.050
   45DPPC   C2B  538   7.994   1.952   4.750
   45DPPC   C3B  539   8.025   1.919   4.450
   45DPPC   C4B  540   8.007   1.946   4.150
   46DPPC   NC3  541   0.549   0.583   5.950
   46DPPC   PO4  542   0.498   0.511   5.650
   46DPPC   GL1  543   0.522   0.564   5.350
   46DPPC   GL2  544   0.462   0.468   5.350
   46DPPC   C1A  545   0.543   0.567   5.050
   46DPPC   C2A  546   0.504   0.527   4.750
   46DPPC   C3A  547   0.468   0.576   4.450
   46DPPC   C4A  548   0.485   0.490   4.150
   46DPPC   C1B  549   0.387   0.331   5.050
   46DPPC   C2B  550   0.345   0.310   4.750
   46DPPC   C3B  551   0.380   0.366   4.450
   46DPPC   C4B  552   0.324   0.333   4.150
   47DPPC   NC3  553   7.314   0.529   5.950
   47DPPC   PO4  554   7.351   0.526   5.650
   47DPPC   GL1  555   7.303   0.598   5.350
   47DPPC   GL2  556   7.350   0.438   5.350
   47DPPC   C1A  557   7.303   0.589   5.050
   47DPPC   C2A  558   7.388   0.571   4.750
   47DPPC   C3A  559   7.371   0.607   4.450
   47DPPC   C4A  560   7.342   0.578   4.150
   47DPPC   C1B  561   7.351   0.309   5.050
   47DPPC   C2B  562   7.416   0.353   4.750
   47DPPC   C3B  563   7.395   0.295   4.450
   47DPPC   C4B  564   7.342   0.351   4.150
   48DPPC   NC3  565   8.868   7.970   5.950
   48DPPC   PO4  566   8.839   8.010   5.650
   48DPPC   GL1  567   8.889   8.051   5.350
   48DPPC   GL2  568   8.912   8.096   5.350
   48DPPC   C1A  569   8.884   8.010   5.050
   48DPPC   C2A  570   8.894   7.979   4.750
   48DPPC   C3A  571   8.909   7.964   4.450
   48DPPC   C4A  572   8.894   8.011   4.150
   48DPPC   C1B  573   8.865   8.293   5.050
   48DPPC   C2B  574   8.937   8.261   4.750
   48DPPC   C3B  575   8.948   8.209   4.450
   48DPPC   C4B  576   8.902   8.252   4.150
   49DPPC   NC3  577   8.180   8.054   5.950
   49DPPC   PO4  578   8.222   8.079   5.650
   49DPPC   GL1  579   8.228   8.074   5.350
   49DPPC   GL2  580   8.104   8.089   5.350
   49DPPC   C1A  581   8.212   8.057   5.050
   49DPPC   C2A  582   8.213   7.997   4.750
   49DPPC   C3A  583   8.197   7.988   4.450
   49DPPC   C4A  584   8.243   8.056   4.150
   49DPPC   C1B  585   8.055   8.268   5.050
   49DPPC   C2B  586   8.000   8.185   4.750
   49DPPC   C3B  587   8.047   8.216   4.450
   49DPPC   C4B  588   8.091   8.195   4.150
   50DPPC   NC3  589   1.314   0.468   5.950
   50DPPC   PO4  590   1.353   0.396   5.650
   50DPPC   GL1  591   1.295   0.403   5.350
   50DPPC   GL2  592   1.163   0.449   5.350
   50DPPC   C1A  593   1.289   0.466   5.050
   50DPPC   C2A  594   1.295   0.480   4.750
   50DPPC   C3A  595   1.334   0.405   4.450
   50DPPC   C4A  596   1.372   0.395   4.150
   50DPPC   C1B  597   1.039   0.437   5.050
   50DPPC   C2B  598   1.039   0.441   4.750
   50DPPC   C3B  599   1.038   0.421   4.450
   50DPPC   C4B  600   1.129   0.397   4.150
   51DPPC   NC3  601   1.267   4.349   5.950
   51DPPC   PO4  602   1.251   4.373   5.650
   51DPPC   GL1  603   1.265   4.363   5.350
   51DPPC   GL2  604   1.184   4.287   5.350
   51DPPC   C1A  605   1.339   4.323   5.050
   51DPPC   C2A  606   1.246   4.404   4.750
   51DPPC   C3A  607   1.322   4.355   4.450
   51DPPC   C4A  608   1.272   4.388   4.150
   51DPPC   C1B  609   1.127   4.205   5.050
   51DPPC   C2B  610   1.067   4.188   4.750
   51DPPC   C3B  611   1.106   4.158   4.450
   51DPPC   C4B  612   1.104   4.151   4.150
   52DPPC   NC3  613   0.345   8.211   5.950
   52DPPC   PO4  614   0.369   8.245   5.650
   52DPPC   GL1  615   0.367   8.192   5.350
   52DPPC   GL2  616   0.453   8.157   5.350
   52DPPC   C1A  617   0.314   8.255   5.050
   52DPPC   C2A  618   0.406   8.247   4.750
   52DPPC   C3A  619   0.408   8.221   4.450
   52DPPC   C4A  620   0.315   8.274   4.150
   52DPPC   C1B  621   0.504   8.029   5.050
   52DPPC   C2B  622   0.463   8.050   4.750
   52DPPC   C3B  623   0.488   7.978   4.450
   52DPPC   C4B  624   0.510   8.034   4.150
   53DPPC   NC3  625   8.038   6.577   5.950
   53DPPC   PO4  626   8.016   6.498   5.650
   53DPPC   GL1  627   8.053   6.498   5.350
   53DPPC   GL2  628   8.133   6.634   5.350
   53DPPC   C1A  629   8.027   6.493   5.050
   53DPPC   C2A  630   8.003   6.580   4.750
   53DPPC   C3A  631   7.976   6.540   4.450
   53DPPC   C4A  632   7.981   6.530   4.150
   53DPPC   C1B  633   8.228   6.635   5.050
   53DPPC   C2B  634   8.278   6.641   4.750
   53DPPC   C3B  635   8.263   6.673   4.450
   53DPPC   C4B  636   8.215   6.692   4.150
   54DPPC   NC3  637   9.038   8.859   5.950
   54DPPC   PO4  638   9.014   8.817   5.650
   54DPPC   GL1  639   9.017   8.815   5.350
   54DPPC   GL2  640   8.864   8.849   5.350
   54DPPC   C1A  641   8.989   8.873   5.050
   54DPPC   C2A  642   9.011   8.856   4.750
   54DPPC   C3A  643   9.056   8.822   4.450
   54DPPC   C4A  644   9.024   8.860   4.150
   54DPPC   C1B  645   8.753   8.919   5.050
   54DPPC   C2B  646   8.802   8.942   4.750
   54DPPC   C3B  647   8.749   8.955   4.450
   54DPPC   C4B  648   8.768   8.980   4.150
   55DPPC   NC3  649   7.392   1.832   5.950
   55DPPC   PO4  650   7.418   1.877   5.650
   55DPPC   GL1  651   7.333   1.807   5.350
   55DPPC   GL2  652   7.361   1.944   5.350
   55DPPC   C1A  653   7.342   1.853   5.050
   55DPPC   C2A  654   7.358   1.866   4.750
   55DPPC   C3A  655   7.374   1.812   4.450
   55DPPC   C4A  656   7.393   1.812   4.150
   55DPPC   C1B  657   7.359   2.086   5.050
   55DPPC   C2B  658   7.354   2.122   4.750
   55DPPC   C3B  659   7.331   2.104   4.450
   55DPPC   C4B  660   7.349   2.091   4.150
   56DPPC   NC3  661   5.704   5.862   5.950
   56DPPC   PO4  662   5.671   5.861   5.650
   56DPPC   GL1  663   5.677   5.839   5.350
   56DPPC   GL2  664   5.864   5.841   5.350
   56DPPC   C1A  665   5.743   5.821   5.050
   56DPPC   C2A  666   5.673   5.851   4.750
   56DPPC   C3A  667   5.664   5.869   4.450
   56DPPC   C4A  668   5.690   5.784   4.150
   56DPPC   C1B  669   5.969   5.815   5.050
   56DPPC   C2B  670   5.985   5.772   4.750
   56DPPC   C3B  671   5.912   5.782   4.450
   56DPPC   C4B  672   5.979   5.831   4.150
   57DPPC   NC3  673   5.939   9.574   5.950
   57DPPC   PO4  674   5.882   9.592   5.650
   57DPPC   GL1  675   5.916   9.601   5.350
   57DPPC   GL2  676   5.836   9.693   5.350
   57DPPC   C1A  677   5.958   9.623   5.050
   57DPPC   C2A  678   5.880   9.597   4.750
   57DPPC   C3A  679   5.918   9.620   4.450
   57DPPC   C4A  680   5.878   9.563   4.150
   57DPPC   C1B  681   5.763   9.764   5.050
   57DPPC   C2B  682   5.762   9.772   4.750
   57DPPC   C3B  683   5.729   9.728   4.450
   57DPPC   C4B  684   5.746   9.697   4.150
   58DPPC   NC3  685   8.930   1.353   5.950
   58DPPC   PO4  686   8.928   1.260   5.650
   58DPPC   GL1  687   8.956   1.330   5.350
   58DPPC   GL2  688   8.896   1.164   5.350
   58DPPC   C1A  689   8.962   1.314   5.050
   58DPPC   C2A  690   8.987   1.323   4.750
   58DPPC   C3A  691   8.964   1.295   4.450
   58DPPC   C4A  692   9.002   1.291   4.150
   58DPPC   C1B  693   8.840   1.097   5.050
   58DPPC   C2B  694   8.835   1.109   4.750
   58DPPC   C3B  695   8.815   1.076   4.450
   58DPPC   C4B  696   8.861   1.144   4.150
   59DPPC   NC3  697   2.017   3.612   5.950
   59DPPC   PO4  698   1.982   3.585   5.650
   59DPPC   GL1  699   2.006   3.671   5.350
   59DPPC   GL2  700   2.010   3.465   5.350
   59DPPC   C1A  701   2.021   3.621   5.050
   59DPPC   C2A  702   2.026   3.675   4.750
   59DPPC   C3A  703   2.034   3.621   4.450
   59DPPC   C4A  704   2.049   3.679   4.150
   59DPPC   C1B  705   1.945   3.400   5.050
   59DPPC   C2B  706   1.958   3.433   4.750
   59DPPC   C3B  707   1.948   3.408   4.450
   59DPPC   C4B  708   1.942   3.364   4.150
   60DPPC   NC3  709   1.267   8.762   5.950
   60DPPC   PO4  710   1.240   8.831   5.650
   60DPPC   GL1  711   1.263   8.836   5.350
   60DPPC   GL2  712   1.196   8.878   5.350
   60DPPC   C1A  713   1.268   8.796   5.050
   60DPPC   C2A  714   1.241   8.809   4.750
   60DPPC   C3A  715   1.332   8.754   4.450
   60DPPC   C4A  716   1.276   8.779   4.150
   60DPPC   C1B  717   1.091   8.951   5.050
   60DPPC   C2B  718   1.116   8.985   4.750
   60DPPC   C3B  719   1.092   8.953   4.450
   60DPPC   C4B  720   1.175   9.016   4.150
   61DPPC   NC3  721   0.517   5.183   5.950
   61DPPC   PO4  722   0.492   5.214   5.650
   61DPPC   GL1  723   0.440   5.194   5.350
   61DPPC   GL2  724   0.401   5.029   5.350
   61DPPC   C1A  725   0.518   5.160   5.050
   61DPPC   C2A  726   0.524   5.210   4.750
   61DPPC   C3A  727   0.504   5.132   4.450
   61DPPC   C4A  728   0.440   5.170   4.150
   61DPPC   C1B  729   0.393   4.922   5.050
   61DPPC   C2B  730   0.430   4.926   4.750
   61DPPC   C3B  731   0.397   4.970   4.450
   61DPPC   C4B  732   0.403   4.901   4.150
   62DPPC   NC3  733   9.741   4.387   5.950
   62DPPC   PO4  734   9.692   4.410   5.650
   62DPPC   GL1  735   9.680   4.399   5.350
   62DPPC   GL2  736   9.626   4.288   5.350
   62DPPC   C1A  737   9.697   4.356   5.050
   62DPPC   C2A  738   9.776   4.423   4.750
   62DPPC   C3A  739   9.725   4.394   4.450
   62DPPC   C4A  740   9.719   4.348   4.150
   62DPPC   C1B  741   9.637   4.166   5.050
   62DPPC   C2B  742   9.634   4.160   4.750
   62DPPC   C3B  743   9.621   4.212   4.450
   62DPPC   C4B  744   9.653   4.123   4.150
   63DPPC   NC3  745   1.332   5.042   5.950
   63DPPC   PO4  746   1.357   5.029   5.650
   63DPPC   GL1  747   1.339   5.063   5.350
   63DPPC   GL2  748   1.250   5.055   5.350
   63DPPC   C1A  749   1.319   5.042   5.050
   63DPPC   C2A  750   1.358   5.089   4.750
   63DPPC   C3A  751   1.286   5.031   4.450
   63DPPC   C4A  752   1.308   5.063   4.150
   63DPPC   C1B  753   1.068   5.001   5.050
   63DPPC   C2B  754   1.118   5.075   4.750
   63DPPC   C3B  755   1.113   5.019   4.450
   63DPPC   C4B  756   1.083   5.000   4.150
   64DPPC   NC3  757   8.832   9.784   5.950
   64DPPC   PO4  758   8.809   9.808   5.650
   64DPPC   GL1  759   8.783   9.734   5.350
   64DPPC   GL2  760   8.930   9.664   5.350
   64DPPC   C1A  761   8.786   9.752   5.050
   64DPPC   C2A  762   8.776   9.797   4.750
   64DPPC   C3A  763   8.793   9.810   4.450
   64DPPC   C4A  764   8.824   9.736   4.150
   64DPPC   C1B  765   8.933   9.574   5.050
   64DPPC   C2B  766   8.935   9.612   4.750
   64DPPC   C3B  767   8.964   9.578   4.450
   64DPPC   C4B  768   9.010   9.613   4.150
   65DPPC   NC3  769   6.593   0.291   5.950
   65DPPC   PO4  770   6.554   0.332   5.650
   65DPPC   GL1  771   6.521   0.359   5.350
   65DPPC   GL2  772   6.621   0.437   5.350
   65DPPC   C1A  773   6.538   0.340   5.050
   65DPPC   C2A  774   6.561   0.294   4.750
   65DPPC   C3A  775   6.605   0.278   4.450
   65DPPC   C4A  776   6.532   0.319   4.150
   65DPPC   C1B  777   6.567   0.571   5.050
   65DPPC   C2B  778   6.622   0.529   4.750
   65DPPC   C3B  779   6.608   0.553   4.450
   65DPPC   C4B  780   6.569   0.551   4.150
   66DPPC   NC3  781   2.814   7.281   5.950
   66DPPC   PO4  782   2.876   7.229   5.650
   66DPPC   GL1  783   2.785   7.272   5.350
   66DPPC   GL2  784   2.751   7.398   5.350
   66DPPC   C1A  785   2.839   7.240   5.050
   66DPPC   C2A  786   2.800   7.301   4.750
   66DPPC   C3A  787   2.788   7.294   4.450
   66DPPC   C4A  788   2.809   7.235   4.150
   66DPPC   C1B  789   2.695   7.416   5.050
   66DPPC   C2B  790   2.686   7.426   4.750
   66DPPC   C3B  791   2.610   7.429   4.450
   66DPPC   C4B  792   2.609   7.409   4.150
   67DPPC   NC3  793   4.247   6.534   5.950
   67DPPC   PO4  794   4.196   6.446   5.650
   67DPPC   GL1  795   4.169   6.513   5.350
   67DPPC   GL2  796   4.312   6.573   5.350
   67DPPC   C1A  797   4.256   6.462   5.050
   67DPPC   C2A  798   4.232   6.438   4.750
   67DPPC   C3A  799   4.239   6.493   4.450
   67DPPC   C4A  800   4.209   6.467   4.150
   67DPPC   C1B  801   4.333   6.662   5.050
   67DPPC   C2B  802   4.390   6.653   4.750
   67DPPC   C3B  803   4.340   6.652   4.450
   67DPPC   C4B  804   4.359   6.661   4.150
   68DPPC   NC3  805   2.839   5.097   5.950
   68DPPC   PO4  806   2.894   5.065   5.650
   68DPPC   GL1  807   2.852   5.119   5.350
   68DPPC   GL2  808   2.791   5.090   5.350
   68DPPC   C1A  809   2.891   5.048   5.050
   68DPPC   C2A  810   2.883   5.112   4.750
   68DPPC   C3A  811   2.906   5.141   4.450
   68DPPC   C4A  812   2.872   5.124   4.150
   68DPPC   C1B  813   2.661   4.960   5.050
   68DPPC   C2B  814   2.629   4.965   4.750
   68DPPC   C3B  815   2.653   4.995   4.450
   68DPPC   C4B  816   2.645   4.969   4.150
   69DPPC   NC3  817   6.714   4.189   5.950
   69DPPC   PO4  818   6.709   4.200   5.650
   69DPPC   GL1  819   6.749   4.252   5.350
   69DPPC   GL2  820   6.596   4.271   5.350
   69DPPC   C1A  821   6.723   4.231   5.050
   69DPPC   C2A  822   6.687   4.260   4.750
   69DPPC   C3A  823   6.679   4.238   4.450
   69DPPC   C4A  824   6.684   4.205   4.150
   69DPPC   C1B  825   6.486   4.344   5.050
   69DPPC   C2B  826   6.494   4.352   4.750
   69DPPC   C3B  827   6.474   4.348   4.450
   69DPPC   C4B  828   6.504   4.333   4.150
   70DPPC   NC3  829   7.295   5.964   5.950
   70DPPC   PO4  830   7.314   5.926   5.650
   70DPPC   GL1  831   7.301   5.873   5.350
   70DPPC   GL2  832   7.320   5.797   5.350
   70DPPC   C1A  833   7.237   5.892   5.050
   70DPPC   C2A  834   7.318   5.941   4.750
   70DPPC   C3A  835   7.256   5.944   4.450
   70DPPC   C4A  836   7.271   5.898   4.150
   70DPPC   C1B  837   7.477   5.718   5.050
   70DPPC   C2B  838   7.435   5.690   4.750
   70DPPC   C3B  839   7.450   5.762   4.450
   70DPPC   C4B  840   7.465   5.676   4.150
   71DPPC   NC3  841   1.877   4.266   5.950
   71DPPC   PO4  842   1.872   4.250   5.650
   71DPPC   GL1  843   1.900   4.192   5.350
   71DPPC   GL2  844   1.998   4.301   5.350
   71DPPC   C1A  845   1.834   4.269   5.050
   71DPPC   C2A  846   1.858   4.184   4.750
   71DPPC   C3A  847   1.899   4.243   4.450
   71DPPC   C4A  848   1.824   4.277   4.150
   71DPPC   C1B  849   2.089   4.362   5.050
   71DPPC   C2B  850   2.080   4.365   4.750
   71DPPC   C3B  851   2.050   4.294   4.450
   71DPPC   C4B  852   2.083   4.312   4.150
   72DPPC   NC3  853   9.800   8.818   5.950
   72DPPC   PO4  854   9.754   8.838   5.650
   72DPPC   GL1  855   9.798   8.841   5.350
   72DPPC   GL2  856   9.696   8.876   5.350
   72DPPC   C1A  857   9.780   8.801   5.050
   72DPPC   C2A  858   9.805   8.798   4.750
   72DPPC   C3A  859   9.820   8.830   4.450
   72DPPC   C4A  860   9.749   8.834   4.150
   72DPPC   C1B  861   9.568   8.972   5.050
   72DPPC   C2B  862   9.523   8.964   4.750
   72DPPC   C3B  863   9.533   8.947   4.450
   72DPPC   C4B  864   9.532   8.986   4.150
   73DPPC   NC3  865   6.736   2.842   5.950
   73DPPC   PO4  866   6.713   2.798   5.650
   73DPPC   GL1  867   6.743   2.774   5.350
   73DPPC   GL2  868   6.558   2.713   5.350
   73DPPC   C1A  869   6.727   2.795   5.050
   73DPPC   C2A  870   6.673   2.851   4.750
   73DPPC   C3A  871   6.692   2.853   4.450
   73DPPC   C4A  872   6.669   2.840   4.150
   73DPPC   C1B  873   6.511   2.653   5.050
   73DPPC   C2B  874   6.506   2.688   4.750
   73DPPC   C3B  875   6.502   2.656   4.450
   73DPPC   C4B  876   6.456   2.700   4.150
   74DPPC   NC3  877   7.242   6.653   5.950
   74DPPC   PO4  878   7.261   6.687   5.650
   74DPPC   GL1  879   7.270   6.679   5.350
   74DPPC   GL2  880   7.400   6.622   5.350
   74DPPC   C1A  881   7.230   6.628   5.050
   74DPPC   C2A  882   7.251   6.664   4.750
   74DPPC   C3A  883   7.279   6.632   4.450
   74DPPC   C4A  884   7.280   6.631   4.150
   74DPPC   C1B  885   7.435   6.500   5.050
   74DPPC   C2B  886   7.432   6.499   4.750
   74DPPC   C3B  887   7.453   6.532   4.450
   74DPPC   C4B  888   7.459   6.477   4.150
   75DPPC   NC3  889   4.277   7.284   5.950
   75DPPC   PO4  890   4.257   7.277   5.650
   75DPPC   GL1  891   4.268   7.269   5.350
   75DPPC   GL2  892   4.245   7.394   5.350
   75DPPC   C1A  893   4.275   7.229   5.050
   75DPPC   C2A  894   4.273   7.215   4.750
   75DPPC   C3A  895   4.283   7.219   4.450
   75DPPC   C4A  896   4.229   7.224   4.150
   75DPPC   C1B  897   4.291   7.454   5.050
   75DPPC   C2B  898   4.295   7.437   4.750
   75DPPC   C3B  899   4.350   7.494   4.450
   75DPPC   C4B  900   4.300   7.458   4.150
   76DPPC   NC3  901   5.763   3.403   5.950
   76DPPC   PO4  902   5.742   3.416   5.650
   76DPPC   GL1  903   5.797   3.379   5.350
   76DPPC   GL2  904   5.820   3.465   5.350
   76DPPC   C1A  905   5.786   3.420   5.050
   76DPPC   C2A  906   5.765   3.363   4.750
   76DPPC   C3A  907   5.825   3.441   4.450
   76DPPC   C4A  908   5.811   3.384   4.150
   76DPPC   C1B  909   5.900   3.613   5.050
   76DPPC   C2B  910   5.881   3.651   4.750
   76DPPC   C3B  911   5.839   3.595   4.450
   76DPPC   C4B  912   5.840   3.624   4.150
   77DPPC   NC3  913   9.588   2.020   5.950
   77DPPC   PO4  914   9.524   2.038   5.650
   77DPPC   GL1  915   9.581   2.012   5.350
   77DPPC   GL2  916   9.713   1.940   5.350
   77DPPC   C1A  917   9.585   2.045   5.050
   77DPPC   C2A  918   9.564   2.064   4.750
   77DPPC   C3A  919   9.600   1.992   4.450
   77DPPC   C4A  920   9.545   2.059   4.150
   77DPPC   C1B  921   9.814   1.954   5.050
   77DPPC   C2B  922   9.731   1.899   4.750
   77DPPC   C3B  923   9.790   1.913   4.450
   77DPPC   C4B  924   9.804   1.884   4.150
   78DPPC   NC3  925   7.317   5.170   5.950
   78DPPC   PO4  926   7.270   5.132   5.650
   78DPPC   GL1  927   7.277   5.184   5.350
   78DPPC   GL2  928   7.406   5.031   5.350
   78DPPC   C1A  929   7.309   5.102   5.050
   78DPPC   C2A  930   7.280   5.134   4.750
   78DPPC   C3A  931   7.308   5.141   4.450
   78DPPC   C4A  932   7.300   5.162   4.150
   78DPPC   C1B  933   7.448   4.915   5.050
   78DPPC   C2B  934   7.411   4.917   4.750
   78DPPC   C3B  935   7.400   4.987   4.450
   78DPPC   C4B  936   7.410   4.924   4.150
   79DPPC   NC3  937   1.166   2.062   5.950
   79DPPC   PO4  938   1.115   2.101   5.650
   79DPPC   GL1  939   1.137   2.081   5.350
   79DPPC   GL2  940   1.196   1.993   5.350
   79DPPC   C1A  941   1.150   2.095   5.050
   79DPPC   C2A  942   1.161   2.121   4.750
   79DPPC   C3A  943   1.139   2.067   4.450
   79DPPC   C4A  944   1.107   2.077   4.150
   79DPPC   C1B  945   1.221   1.833   5.050
   79DPPC   C2B  946   1.257   1.887   4.750
   79DPPC   C3B  947   1.244   1.899   4.450
   79DPPC   C4B  948   1.297   1.839   4.150
   80DPPC   NC3  949   9.587   2.712   5.950
   80DPPC   PO4  950   9.507   2.728   5.650
   80DPPC   GL1  951   9.568   2.763   5.350
   80DPPC   GL2  952   9.662   2.768   5.350
   80DPPC   C1A  953   9.532   2.770   5.050
   80DPPC   C2A  954   9.548   2.779   4.750
   80DPPC   C3A  955   9.552   2.769   4.450
   80DPPC   C4A  956   9.502   2.734   4.150
   80DPPC   C1B  957   9.760   2.729   5.050
   80DPPC   C2B  958   9.775   2.695   4.750
   80DPPC   C3B  959   9.765   2.698   4.450
   80DPPC   C4B  960   9.760   2.692   4.150
   81DPPC   NC3  961   3.582   2.028   5.950
   81DPPC   PO4  962   3.541   2.109   5.650
   81DPPC   GL1  963   3.567   2.094   5.350
   81DPPC   GL2  964   3.510   1.959   5.350
   81DPPC   C1A  965   3.541   2.100   5.050
   81DPPC   C2A  966   3.589   2.045   4.750
   81DPPC   C3A  967   3.545   2.050   4.450
   81DPPC   C4A  968   3.579   2.062   4.150
   81DPPC   C1B  969   3.464   1.832   5.050
   81DPPC   C2B  970   3.462   1.896   4.750
   81DPPC   C3B  971   3.440   1.840   4.450
   81DPPC   C4B  972   3.465   1.916   4.150
   82DPPC   NC3  973   1.120   1.108   5.950
   82DPPC   PO4  974   1.143   1.128   5.650
   82DPPC   GL1  975   1.135   1.112   5.350
   82DPPC   GL2  976   1.192   1.186   5.350
   82DPPC   C1A  977   1.162   1.132   5.050
   82DPPC   C2A  978   1.145   1.092   4.750
   82DPPC   C3A  979   1.161   1.137   4.450
   82DPPC   C4A  980   1.149   1.141   4.150
   82DPPC   C1B  981   1.275   1.328   5.050
   82DPPC   C2B  982   1.267   1.281   4.750
   82DPPC   C3B  983   1.233   1.357   4.450
   82DPPC   C4B  984   1.246   1.350   4.150
   83DPPC   NC3  985   5.901   6.657   5.950
   83DPPC   PO4  986   5.936   6.689   5.650
   83DPPC   GL1  987   5.965   6.612   5.350
   83DPPC   GL2  988   5.813   6.577   5.350
   83DPPC   C1A  989   5.967   6.625   5.050
   83DPPC   C2A  990   5.896   6.657   4.750
   83DPPC   C3A  991   5.915   6.709   4.450
   83DPPC   C4A  992   5.917   6.698   4.150
   83DPPC   C1B  993   5.701   6.546   5.050
   83DPPC   C2B  994   5.681   6.497   4.750
   83DPPC   C3B  995   5.746   6.515   4.450
   83DPPC   C4B  996   5.733   6.554   4.150
   84DPPC   NC3  997   0.355   9.575   5.950
   84DPPC   PO4  998   0.336   9.538   5.650
   84DPPC   GL1  999   0.376   9.519   5.350
   84DPPC   GL2 1000   0.396   9.646   5.350
   84DPPC   C1A 1001   0.408   9.564   5.050
   84DPPC   C2A 1002   0.345   9.521   4.750
   84DPPC   C3A 1003   0.353   9.516   4.450
   84DPPC   C4A 1004   0.313   9.588   4.150
   84DPPC   C1B 1005   0.554   9.725   5.050
   84DPPC   C2B 1006   0.490   9.723   4.750
   84DPPC   C3B 1007   0.553   9.799   4.450
   84DPPC   C4B 1008   0.531   9.793   4.150
   85DPPC   NC3 1009   9.616   3.627   5.950
   85DPPC   PO4 1010   9.521   3.638   5.650
   85DPPC   GL1 1011   9.547   3.628   5.350
   85DPPC   GL2 1012   9.695   3.474   5.350
   85DPPC   C1A 1013   9.588   3.624   5.050
   85DPPC   C2A 1014   9.593   3.637   4.750
   85DPPC   C3A 1015   9.591   3.616   4.450
   85DPPC   C4A 1016   9.565   3.617   4.150
   85DPPC   C1B 1017   9.791   3.450   5.050
   85DPPC   C2B 1018   9.727   3.428   4.750
   85DPPC   C3B 1019   9.768   3.454   4.450
   85DPPC   C4B 1020   9.765   3.422   4.150
   86DPPC   NC3 1021   2.658   1.289   5.950
   86DPPC   PO4 1022   2.596   1.263   5.650
   86DPPC   GL1 1023   2.682   1.300   5.350
   86DPPC   GL2 1024   2.701   1.215   5.350
   86DPPC   C1A 1025   2.630   1.235   5.050
   86DPPC   C2A 1026   2.632   1.245   4.750
   86DPPC   C3A 1027   2.619   1.280   4.450
   86DPPC   C4A 1028   2.611   1.283   4.150
   86DPPC   C1B 1029   2.817   1.081   5.050
   86DPPC   C2B 1030   2.852   1.147   4.750
   86DPPC   C3B 1031   2.815   1.125   4.450
   86DPPC   C4B 1032   2.885   1.099   4.150
   87DPPC   NC3 1033   4.291   1.062   5.950
   87DPPC   PO4 1034   4.309   1.121   5.650
   87DPPC   GL1 1035   4.239   1.079   5.350
   87DPPC   GL2 1036   4.287   1.218   5.350
   87DPPC   C1A 1037   4.296   1.090   5.050
   87DPPC   C2A 1038   4.281   1.116   4.750
   87DPPC   C3A 1039   4.232   1.108   4.450
   87DPPC   C4A 1040   4.232   1.127   4.150
   87DPPC   C1B 1041   4.266   1.377   5.050
   87DPPC   C2B 1042   4.320   1.299   4.750
   87DPPC   C3B 1043   4.259   1.355   4.450
   87DPPC   C4B 1044   4.263   1.296   4.150
   88DPPC   NC3 1045   7.385   7.219   5.950
   88DPPC   PO4 1046   7.372   7.223   5.650
   88DPPC   GL1 1047   7.317   7.199   5.350
   88DPPC   GL2 1048   7.376   7.389   5.350
   88DPPC   C1A 1049   7.358   7.200   5.050
   88DPPC   C2A 1050   7.387   7.248   4.750
   88DPPC   C3A 1051   7.364   7.185   4.450
   88DPPC   C4A 1052   7.315   7.204   4.150
   88DPPC   C1B 1053   7.394   7.448   5.050
   88DPPC   C2B 1054   7.389   7.449   4.750
   88DPPC   C3B 1055   7.354   7.434   4.450
   88DPPC   C4B 1056   7.337   7.523   4.150
   89DPPC   NC3 1057   4.989   8.212   5.950
   89DPPC   PO4 1058   4.962   8.263   5.650
   89DPPC   GL1 1059   4.972   8.287   5.350
   89DPPC   GL2 1060   5.080   8.167   5.350
   89DPPC   C1A 1061   5.045   8.273   5.050
   89DPPC   C2A 1062   4.983   8.222   4.750
   89DPPC   C3A 1063   4.981   8.262   4.450
   89DPPC   C4A 1064   5.015   8.203   4.150
   89DPPC   C1B 1065   5.116   7.960   5.050
   89DPPC   C2B 1066   5.133   8.052   4.750
   89DPPC   C3B 1067   5.062   7.959   4.450
   89DPPC   C4B 1068   5.125   8.047   4.150
   90DPPC   NC3 1069   3.548   5.166   5.950
   90DPPC   PO4 1070   3.585   5.150   5.650
   90DPPC   GL1 1071   3.625   5.146   5.350
   90DPPC   GL2 1072   3.533   5.045   5.350
   90DPPC   C1A 1073   3.607   5.185   5.050
   90DPPC   C2A 1074   3.610   5.140   4.750
   90DPPC   C3A 1075   3.593   5.186   4.450
   90DPPC   C4A 1076   3.580   5.193   4.150
   90DPPC   C1B 1077   3.425   4.908   5.050
   90DPPC   C2B 1078   3.435   4.900   4.750
   90DPPC   C3B 1079   3.456   4.987   4.450
   90DPPC   C4B 1080   3.467   4.975   4.150
   91DPPC   NC3 1081   0.341   4.396   5.950
   91DPPC   PO4 1082   0.321   4.403   5.650
   91DPPC   GL1 1083   0.357   4.410   5.350
   91DPPC   GL2 1084   0.445   4.234   5.350
   91DPPC   C1A 1085   0.324   4.410   5.050
   91DPPC   C2A 1086   0.392   4.361   4.750
   91DPPC   C3A 1087   0.346   4.387   4.450
   91DPPC   C4A 1088   0.342   4.400   4.150
   91DPPC   C1B 1089   0.547   4.183   5.050
   91DPPC   C2B 1090   0.545   4.191   4.750
   91DPPC   C3B 1091   0.534   4.197   4.450
   91DPPC   C4B 1092   0.543   4.163   4.150
   92DPPC   NC3 1093   8.881   5.702   5.950
   92DPPC   PO4 1094   8.886   5.655   5.650
   92DPPC   GL1 1095   8.877   5.672   5.350
   92DPPC   GL2 1096   8.911   5.775   5.350
   92DPPC   C1A 1097   8.885   5.651   5.050
   92DPPC   C2A 1098   8.919   5.730   4.750
   92DPPC   C3A 1099   8.883   5.729   4.450
   92DPPC   C4A 1100   8.928   5.722   4.150
   92DPPC   C1B 1101   8.893   5.963   5.050
   92DPPC   C2B 1102   8.853   5.920   4.750
   92DPPC   C3B 1103   8.875   5.917   4.450
   92DPPC   C4B 1104   8.916   5.994   4.150
   93DPPC   NC3 1105   1.225   3.602   5.950
   93DPPC   PO4 1106   1.170   3.593   5.650
   93DPPC   GL1 1107   1.188   3.674   5.350
   93DPPC   GL2 1108   1.158   3.532   5.350
   93DPPC   C1A 1109   1.218   3.653   5.050
   93DPPC   C2A 1110   1.217   3.686   4.750
   93DPPC   C3A 1111   1.149   3.680   4.450
   93DPPC   C4A 1112   1.171   3.618   4.150
   93DPPC   C1B 1113   1.228   3.364   5.050
   93DPPC   C2B 1114   1.171   3.364   4.750
   93DPPC   C3B 1115   1.200   3.396   4.450
   93DPPC   C4B 1116   1.244   3.356   4.150
   94DPPC   NC3 1117   4.172   8.909   5.950
   94DPPC   PO4 1118   4.147   8.950   5.650
   94DPPC   GL1 1119   4.204   8.886   5.350
   94DPPC   GL2 1120   4.267   8.871   5.350
   94DPPC   C1A 1121   4.191   8.880   5.050
   94DPPC   C2A 1122   4.157   8.927   4.750
   94DPPC   C3A 1123   4.172   8.915   4.450
   94DPPC   C4A 1124   4.137   8.926   4.150
   94DPPC   C1B 1125   4.448   8.933   5.050
   94DPPC   C2B 1126   4.361   8.851   4.750
   94DPPC   C3B 1127   4.447   8.923   4.450
   94DPPC   C4B 1128   4.368   8.842   4.150
   95DPPC   NC3 1129   5.126   3.583   5.950
   95DPPC   PO4 1130   5.151   3.627   5.650
   95DPPC   GL1 1131   5.098   3.671   5.350
   95DPPC   GL2 1132   5.081   3.468   5.350
   95DPPC   C1A 1133   5.132   3.590   5.050
   95DPPC   C2A 1134   5.083   3.662   4.750
   95DPPC   C3A 1135   5.080   3.574   4.450
   95DPPC   C4A 1136   5.134   3.586   4.150
   95DPPC   C1B 1137   5.007   3.410   5.050
   95DPPC   C2B 1138   4.944   3.402   4.750
   95DPPC   C3B 1139   4.965   3.351   4.450
   95DPPC   C4B 1140   5.011   3.389   4.150
   96DPPC   NC3 1141   0.373   3.674   5.950
   96DPPC   PO4 1142   0.408   3.618   5.650
   96DPPC   GL1 1143   0.452   3.653   5.350
   96DPPC   GL2 1144   0.414   3.514   5.350
   96DPPC   C1A 1145   0.437   3.675   5.050
   96DPPC   C2A 1146   0.440   3.669   4.750
   96DPPC   C3A 1147   0.447   3.591   4.450
   96DPPC   C4A 1148   0.387   3.592   4.150
   96DPPC   C1B 1149   0.404   3.360   5.050
   96DPPC   C2B 1150   0.471   3.416   4.750
   96DPPC   C3B 1151   0.466   3.347   4.450
   96DPPC   C4B 1152   0.492   3.418   4.150
   97DPPC   NC3 1153   2.717   5.721   5.950
   97DPPC   PO4 1154   2.757   5.677   5.650
   97DPPC   GL1 1155   2.756   5.667   5.350
   97DPPC   GL2 1156   2.732   5.799   5.350
   97DPPC   C1A 1157   2.749   5.732   5.050
   97DPPC   C2A 1158   2.714   5.671   4.750
   97DPPC   C3A 1159   2.745   5.685   4.450
   97DPPC   C4A 1160   2.755   5.659   4.150
   97DPPC   C1B 1161   2.709   5.964   5.050
   97DPPC   C2B 1162   2.718   5.953   4.750
   97DPPC   C3B 1163   2.729   5.903   4.450
   97DPPC   C4B 1164   2.723   5.920   4.150
   98DPPC   NC3 1165   2.780   4.346   5.950
   98DPPC   PO4 1166   2.761   4.405   5.650
   98DPPC   GL1 1167   2.764   4.405   5.350
   98DPPC   GL2 1168   2.693   4.278   5.350
   98DPPC   C1A 1169   2.846   4.398   5.050
   98DPPC   C2A 1170   2.794   4.371   4.750
   98DPPC   C3A 1171   2.792   4.436   4.450
   98DPPC   C4A 1172   2.839   4.409   4.150
   98DPPC   C1B 1173   2.675   4.168   5.050
   98DPPC   C2B 1174   2.690   4.169   4.750
   98DPPC   C3B 1175   2.663   4.205   4.450
   98DPPC   C4B 1176   2.734   4.195   4.150
   99DPPC   NC3 1177   8.197   4.333   5.950
   99DPPC   PO4 1178   8.195   4.347   5.650
   99DPPC   GL1 1179   8.266   4.356   5.350
   99DPPC   GL2 1180   8.146   4.298   5.350
   99DPPC   C1A 1181   8.276   4.298   5.050
   99DPPC   C2A 1182   8.227   4.283   4.750
   99DPPC   C3A 1183   8.268   4.367   4.450
   99DPPC   C4A 1184   8.195   4.302   4.150
   99DPPC   C1B 1185   8.051   4.230   5.050
   99DPPC   C2B 1186   8.009   4.193   4.750
   99DPPC   C3B 1187   8.043   4.277   4.450
   99DPPC   C4B 1188   8.020   4.230   4.150
  100DPPC   NC3 1189   1.907   1.090   5.950
  100DPPC   PO4 1190   1.954   1.080   5.650
  100DPPC   GL1 1191   1.966   1.091   5.350
  100DPPC   GL2 1192   1.950   1.182   5.350
  100DPPC   C1A 1193   1.960   1.086   5.050
  100DPPC   C2A 1194   1.931   1.041   4.750
  100DPPC   C3A 1195   1.952   1.097   4.450
  100DPPC   C4A 1196   1.995   1.068   4.150
  100DPPC   C1B 1197   1.994   1.326   5.050
  100DPPC   C2B 1198   2.014   1.324   4.750
  100DPPC   C3B 1199   1.998   1.308   4.450
  100DPPC   C4B 1200   1.976   1.337   4.150
  101DPPC   NC3 1201   1.285   6.443   5.950
  101DPPC   PO4 1202   1.234   6.435   5.650
  101DPPC   GL1 1203   1.245   6.478   5.350
  101DPPC   GL2 1204   1.227   6.613   5.350
  101DPPC   C1A 1205   1.247   6.464   5.050
  101DPPC   C2A 1206   1.290   6.436   4.750
  101DPPC   C3A 1207   1.296   6.434   4.450
  101DPPC   C4A 1208   1.301   6.516   4.150
  101DPPC   C1B 1209   1.179   6.729   5.050
  101DPPC   C2B 1210   1.169   6.715   4.750
  101DPPC   C3B 1211   1.153   6.681   4.450
  101DPPC   C4B 1212   1.174   6.669   4.150
  102DPPC   NC3 1213   1.851   9.659   5.950
  102DPPC   PO4 1214   1.862   9.667   5.650
  102DPPC   GL1 1215   1.821   9.635   5.350
  102DPPC   GL2 1216   1.935   9.705   5.350
  102DPPC   C1A 1217   1.879   9.576   5.050
  102DPPC   C2A 1218   1.893   9.661   4.750
  102DPPC   C3A 1219   1.835   9.631   4.450
  102DPPC   C4A 1220   1.882   9.669   4.150
  102DPPC   C1B 1221   2.068   9.750   5.050
  102DPPC   C2B 1222   2.114   9.685   4.750
  102DPPC   C3B 1223   2.058   9.701   4.450
  102DPPC   C4B 1224   2.123   9.705   4.150
  103DPPC   NC3 1225   8.094   0.573   5.950
  103DPPC   PO4 1226   8.048   0.580   5.650
  103DPPC   GL1 1227   8.057   0.500   5.350
  103DPPC   GL2 1228   8.103   0.457   5.350
  103DPPC   C1A 1229   8.093   0.573   5.050
  103DPPC   C2A 1230   8.044   0.523   4.750
  103DPPC   C3A 1231   8.020   0.513   4.450
  103DPPC   C4A 1232   8.043   0.555   4.150
  103DPPC   C1B 1233   8.237   0.374   5.050
  103DPPC   C2B 1234   8.149   0.328   4.750
  103DPPC   C3B 1235   8.195   0.344   4.450
  103DPPC   C4B 1236   8.156   0.295   4.150
  104DPPC   NC3 1237   4.417   2.738   5.950
  104DPPC   PO4 1238   4.417   2.744   5.650
  104DPPC   GL1 1239   4.402   2.714   5.350
  104DPPC   GL2 1240   4.247   2.781   5.350
  104DPPC   C1A 1241   4.400   2.754   5.050
  104DPPC   C2A 1242   4.416   2.743   4.750
  104DPPC   C3A 1243   4.450   2.766   4.450
  104DPPC   C4A 1244   4.444   2.769   4.150
  104DPPC   C1B 1245   4.110   2.718   5.050
  104DPPC   C2B 1246   4.176   2.716   4.750
  104DPPC   C3B 1247   4.117   2.806   4.450
  104DPPC   C4B 1248   4.133   2.719   4.150
  105DPPC   NC3 1249   5.944   8.923   5.950
  105DPPC   PO4 1250   5.917   8.976   5.650
  105DPPC   GL1 1251   5.933   9.009   5.350
  105DPPC   GL2 1252   5.784   8.871   5.350
  105DPPC   C1A 1253   5.927   8.961   5.050
  105DPPC   C2A 1254   5.900   8.974   4.750
  105DPPC   C3A 1255   5.950   8.932   4.450
  105DPPC   C4A 1256   5.930   8.950   4.150
  105DPPC   C1B 1257   5.672   8.844   5.050
  105DPPC   C2B 1258   5.734   8.785   4.750
  105DPPC   C3B 1259   5.667   8.863   4.450
  105DPPC   C4B 1260   5.690   8.860   4.150
  106DPPC   NC3 1261   5.908   2.879   5.950
  106DPPC   PO4 1262   5.857   2.851   5.650
  106DPPC   GL1 1263   5.897   2.840   5.350
  106DPPC   GL2 1264   5.860   2.761   5.350
  106DPPC   C1A 1265   5.948   2.849   5.050
  106DPPC   C2A 1266   5.919   2.807   4.750
  106DPPC   C3A 1267   5.895   2.787   4.450
  106DPPC   C4A 1268   5.902   2.852   4.150
  106DPPC   C1B 1269   5.740   2.692   5.050
  106DPPC   C2B 1270   5.768   2.616   4.750
  106DPPC   C3B 1271   5.724   2.679   4.450
  106DPPC   C4B 1272   5.695   2.611   4.150
  107DPPC   NC3 1273   8.031   1.116   5.950
  107DPPC   PO4 1274   8.123   1.088   5.650
  107DPPC   GL1 1275   8.104   1.047   5.350
  107DPPC   GL2 1276   8.124   1.164   5.350
  107DPPC   C1A 1277   8.048   1.101   5.050
  107DPPC   C2A 1278   8.115   1.057   4.750
  107DPPC   C3A 1279   8.097   1.067   4.450
  107DPPC   C4A 1280   8.052   1.052   4.150
  107DPPC   C1B 1281   8.141   1.280   5.050
  107DPPC   C2B 1282   8.218   1.306   4.750
  107DPPC   C3B 1283   8.195   1.311   4.450
  107DPPC   C4B 1284   8.216   1.322   4.150
  108DPPC   NC3 1285   1.969   6.469   5.950
  108DPPC   PO4 1286   1.976   6.499   5.650
  108DPPC   GL1 1287   1.905   6.478   5.350
  108DPPC   GL2 1288   1.930   6.633   5.350
  108DPPC   C1A 1289   1.920   6.471   5.050
  108DPPC   C2A 1290   1.964   6.461   4.750
  108DPPC   C3A 1291   1.910   6.445   4.450
  108DPPC   C4A 1292   1.943   6.514   4.150
  108DPPC   C1B 1293   2.051   6.689   5.050
  108DPPC   C2B 1294   1.972   6.660   4.750
  108DPPC   C3B 1295   2.043   6.660   4.450
  108DPPC   C4B 1296   2.003   6.663   4.150
  109DPPC   NC3 1297   5.691   1.900   5.950
  109DPPC   PO4 1298   5.763   1.933   5.650
  109DPPC   GL1 1299   5.743   1.840   5.350
  109DPPC   GL2 1300   5.817   1.927   5.350
  109DPPC   C1A 1301   5.702   1.851   5.050
  109DPPC   C2A 1302   5.716   1.903   4.750
  109DPPC   C3A 1303   5.754   1.926   4.450
  109DPPC   C4A 1304   5.756   1.861   4.150
  109DPPC   C1B 1305   5.870   2.079   5.050
  109DPPC   C2B 1306   5.904   2.011   4.750
  109DPPC   C3B 1307   5.880   2.101   4.450
  109DPPC   C4B 1308   5.934   2.014   4.150
  110DPPC   NC3 1309   0.464   2.076   5.950
  110DPPC   PO4 1310   0.457   2.138   5.650
  110DPPC   GL1 1311   0.413   2.091   5.350
  110DPPC   GL2 1312   0.448   1.940   5.350
  110DPPC   C1A 1313   0.425   2.099   5.050
  110DPPC   C2A 1314   0.427   2.122   4.750
  110DPPC   C3A 1315   0.388   2.121   4.450
  110DPPC   C4A 1316   0.404   2.055   4.150
  110DPPC   C1B 1317   0.435   1.849   5.050
  110DPPC   C2B 1318   0.442   1.833   4.750
  110DPPC   C3B 1319   0.413   1.851   4.450
  110DPPC   C4B 1320   0.458   1.816   4.150
  111DPPC   NC3 1321   8.074   5.087   5.950
  111DPPC   PO4 1322   8.042   5.162   5.650
  111DPPC   GL1 1323   8.037   5.088   5.350
  111DPPC   GL2 1324   8.139   5.029   5.350
  111DPPC   C1A 1325   8.051   5.096   5.050
  111DPPC   C2A 1326   8.008   5.165   4.750
  111DPPC   C3A 1327   8.012   5.103   4.450
  111DPPC   C4A 1328   8.056   5.096   4.150
  111DPPC   C1B 1329   8.230   4.973   5.050
  111DPPC   C2B 1330   8.171   4.919   4.750
  111DPPC   C3B 1331   8.246   4.984   4.450
  111DPPC   C4B 1332   8.190   5.008   4.150
  112DPPC   NC3 1333   8.895   4.885   5.950
  112DPPC   PO4 1334   8.925   4.914   5.650
  112DPPC   GL1 1335   8.896   4.957   5.350
  112DPPC   GL2 1336   8.940   5.086   5.350
  112DPPC   C1A 1337   8.938   4.954   5.050
  112DPPC   C2A 1338   8.937   4.894   4.750
  112DPPC   C3A 1339   8.925   4.923   4.450
  112DPPC   C4A 1340   8.909   4.932   4.150
  112DPPC   C1B 1341   8.829   5.174   5.050
  112DPPC   C2B 1342   8.891   5.131   4.750
  112DPPC   C3B 1343   8.851   5.203   4.450
  112DPPC   C4B 1344   8.846   5.215   4.150
  113DPPC   NC3 1345   7.191   1.241   5.950
  113DPPC   PO4 1346   7.263   1.268   5.650
  113DPPC   GL1 1347   7.194   1.240   5.350
  113DPPC   GL2 1348   7.395   1.238   5.350
  113DPPC   C1A 1349   7.197   1.246   5.050
  113DPPC   C2A 1350   7.243   1.180   4.750
  113DPPC   C3A 1351   7.215   1.245   4.450
  113DPPC   C4A 1352   7.271   1.196   4.150
  113DPPC   C1B 1353   7.492   1.190   5.050
  113DPPC   C2B 1354   7.465   1.171   4.750
  113DPPC   C3B 1355   7.514   1.208   4.450
  113DPPC   C4B 1356   7.491   1.225   4.150
  114DPPC   NC3 1357   8.974   6.699   5.950
  114DPPC   PO4 1358   9.017   6.642   5.650
  114DPPC   GL1 1359   8.983   6.668   5.350
  114DPPC   GL2 1360   8.921   6.637   5.350
  114DPPC   C1A 1361   9.000   6.699   5.050
  114DPPC   C2A 1362   8.999   6.662   4.750
  114DPPC   C3A 1363   9.010   6.687   4.450
  114DPPC   C4A 1364   8.983   6.701   4.150
  114DPPC   C1B 1365   8.754   6.505   5.050
  114DPPC   C2B 1366   8.812   6.509   4.750
  114DPPC   C3B 1367   8.838   6.465   4.450
  114DPPC   C4B 1368   8.799   6.470   4.150
  115DPPC   NC3 1369   8.182   9.729   5.950
  115DPPC   PO4 1370   8.208   9.769   5.650
  115DPPC   GL1 1371   8.190   9.776   5.350
  115DPPC   GL2 1372   8.144   9.627   5.350
  115DPPC   C1A 1373   8.230   9.792   5.050
  115DPPC   C2A 1374   8.187   9.767   4.750
  115DPPC   C3A 1375   8.257   9.800   4.450
  115DPPC   C4A 1376   8.226   9.796   4.150
  115DPPC   C1B 1377   8.067   9.604   5.050
  115DPPC   C2B 1378   8.088   9.602   4.750
  115DPPC   C3B 1379   8.073   9.587   4.450
  115DPPC   C4B 1380   8.018   9.562   4.150
  116DPPC   NC3 1381   6.675   5.928   5.950
  116DPPC   PO4 1382   6.713   5.910   5.650
  116DPPC   GL1 1383   6.729   5.859   5.350
  116DPPC   GL2 1384   6.553   5.831   5.350
  116DPPC   C1A 1385   6.656   5.936   5.050
  116DPPC   C2A 1386   6.717   5.873   4.750
  116DPPC   C3A 1387   6.700   5.909   4.450
  116DPPC   C4A 1388   6.663   5.844   4.150
  116DPPC   C1B 1389   6.488   5.748   5.050
  116DPPC   C2B 1390   6.443   5.783   4.750
  116DPPC   C3B 1391   6.503   5.758   4.450
  116DPPC   C4B 1392   6.496   5.720   4.150
  117DPPC   NC3 1393   4.149   5.723   5.950
  117DPPC   PO4 1394   4.143   5.761   5.650
  117DPPC   GL1 1395   4.135   5.795   5.350
  117DPPC   GL2 1396   4.259   5.855   5.350
  117DPPC   C1A 1397   4.129   5.783   5.050
  117DPPC   C2A 1398   4.128   5.753   4.750
  117DPPC   C3A 1399   4.149   5.752   4.450
  117DPPC   C4A 1400   4.137   5.720   4.150
  117DPPC   C1B 1401   4.368   5.839   5.050
  117DPPC   C2B 1402   4.423   5.858   4.750
  117DPPC   C3B 1403   4.426   5.855   4.450
  117DPPC   C4B 1404   4.382   5.875   4.150
  118DPPC   NC3 1405   9.624   6.515   5.950
  118DPPC   PO4 1406   9.602   6.476   5.650
  118DPPC   GL1 1407   9.665   6.504   5.350
  118DPPC   GL2 1408   9.670   6.609   5.350
  118DPPC   C1A 1409   9.653   6.457   5.050
  118DPPC   C2A 1410   9.667   6.442   4.750
  118DPPC   C3A 1411   9.625   6.493   4.450
  118DPPC   C4A 1412   9.636   6.472   4.150
  118DPPC   C1B 1413   9.716   6.687   5.050
  118DPPC   C2B 1414   9.740   6.673   4.750
  118DPPC   C3B 1415   9.671   6.704   4.450
  118DPPC   C4B 1416   9.686   6.750   4.150
  119DPPC   NC3 1417   3.566   3.644   5.950
  119DPPC   PO4 1418   3.488   3.630   5.650
  119DPPC   GL1 1419   3.501   3.657   5.350
  119DPPC   GL2 1420   3.524   3.497   5.350
  119DPPC   C1A 1421   3.542   3.631   5.050
  119DPPC   C2A 1422   3.495   3.674   4.750
  119DPPC   C3A 1423   3.547   3.655   4.450
  119DPPC   C4A 1424   3.488   3.603   4.150
  119DPPC   C1B 1425   3.521   3.399   5.050
  119DPPC   C2B 1426   3.450   3.400   4.750
  119DPPC   C3B 1427   3.497   3.404   4.450
  119DPPC   C4B 1428   3.516   3.421   4.150
  120DPPC   NC3 1429   3.469   4.134   5.950
  120DPPC   PO4 1430   3.470   4.158   5.650
  120DPPC   GL1 1431   3.419   4.155   5.350
  120DPPC   GL2 1432   3.513   4.290   5.350
  120DPPC   C1A 1433   3.418   4.217   5.050
  120DPPC   C2A 1434   3.407   4.149   4.750
  120DPPC   C3A 1435   3.487   4.210   4.450
  120DPPC   C4A 1436   3.411   4.184   4.150
  120DPPC   C1B 1437   3.604   4.432   5.050
  120DPPC   C2B 1438   3.535   4.367   4.750
  120DPPC   C3B 1439   3.627   4.346   4.450
  120DPPC   C4B 1440   3.535   4.363   4.150
  121DPPC   NC3 1441   3.497   7.453   5.950
  121DPPC   PO4 1442   3.518   7.516   5.650
  121DPPC   GL1 1443   3.499   7.451   5.350
  121DPPC   GL2 1444   3.505   7.391   5.350
  121DPPC   C1A 1445   3.427   7.494   5.050
  121DPPC   C2A 1446   3.485   7.441   4.750
  121DPPC   C3A 1447   3.425   7.483   4.450
  121DPPC   C4A 1448   3.497   7.443   4.150
  121DPPC   C1B 1449   3.574   7.263   5.050
  121DPPC   C2B 1450   3.586   7.212   4.750
  121DPPC   C3B 1451   3.520   7.215   4.450
  121DPPC   C4B 1452   3.514   7.199   4.150
  122DPPC   NC3 1453   3.522   0.267   5.950
  122DPPC   PO4 1454   3.577   0.357   5.650
  122DPPC   GL1 1455   3.560   0.299   5.350
  122DPPC   GL2 1456   3.516   0.454   5.350
  122DPPC   C1A 1457   3.504   0.359   5.050
  122DPPC   C2A 1458   3.490   0.305   4.750
  122DPPC   C3A 1459   3.575   0.357   4.450
  122DPPC   C4A 1460   3.538   0.277   4.150
  122DPPC   C1B 1461   3.529   0.523   5.050
  122DPPC   C2B 1462   3.438   0.521   4.750
  122DPPC   C3B 1463   3.434   0.571   4.450
  122DPPC   C4B 1464   3.448   0.519   4.150
  123DPPC   NC3 1465   9.557   5.826   5.950
  123DPPC   PO4 1466   9.492   5.869   5.650
  123DPPC   GL1 1467   9.570   5.838   5.350
  123DPPC   GL2 1468   9.698   5.848   5.350
  123DPPC   C1A 1469   9.505   5.871   5.050
  123DPPC   C2A 1470   9.579   5.793   4.750
  123DPPC   C3A 1471   9.574   5.855   4.450
  123DPPC   C4A 1472   9.549   5.796   4.150
  123DPPC   C1B 1473   9.782   5.764   5.050
  123DPPC   C2B 1474   9.759   5.813   4.750
  123DPPC   C3B 1475   9.805   5.848   4.450
  123DPPC   C4B 1476   9.795   5.788   4.150
  124DPPC   NC3 1477   3.390   9.599   5.950
  124DPPC   PO4 1478   3.435   9.575   5.650
  124DPPC   GL1 1479   3.456   9.592   5.350
  124DPPC   GL2 1480   3.488   9.640   5.350
  124DPPC   C1A 1481   3.452   9.589   5.050
  124DPPC   C2A 1482   3.372   9.559   4.750
  124DPPC   C3A 1483   3.377   9.625   4.450
  124DPPC   C4A 1484   3.371   9.556   4.150
  124DPPC   C1B 1485   3.615   9.720   5.050
  124DPPC   C2B 1486   3.630   9.701   4.750
  124DPPC   C3B 1487   3.583   9.753   4.450
  124DPPC   C4B 1488   3.614   9.751   4.150
  125DPPC   NC3 1489   1.248   7.494   5.950
  125DPPC   PO4 1490   1.255   7.448   5.650
  125DPPC   GL1 1491   1.190   7.447   5.350
  125DPPC   GL2 1492   1.219   7.336   5.350
  125DPPC   C1A 1493   1.201   7.454   5.050
  125DPPC   C2A 1494   1.215   7.433   4.750
  125DPPC   C3A 1495   1.275   7.510   4.450
  125DPPC   C4A 1496   1.251   7.448   4.150
  125DPPC   C1B 1497   1.198   7.253   5.050
  125DPPC   C2B 1498   1.221   7.210   4.750
  125DPPC   C3B 1499   1.161   7.228   4.450
  125DPPC   C4B 1500   1.151   7.264   4.150
  126DPPC   NC3 1501   9.566   0.329   5.950
  126DPPC   PO4 1502   9.605   0.294   5.650
  126DPPC   GL1 1503   9.559   0.302   5.350
  126DPPC   GL2 1504   9.623   0.415   5.350
  126DPPC   C1A 1505   9.548   0.329   5.050
  126DPPC   C2A 1506   9.621   0.383   4.750
  126DPPC   C3A 1507   9.631   0.341   4.450
  126DPPC   C4A 1508   9.602   0.377   4.150
  126DPPC   C1B 1509   9.741   0.533   5.050
  126DPPC   C2B 1510   9.749   0.495   4.750
  126DPPC   C3B 1511   9.720   0.500   4.450
  126DPPC   C4B 1512   9.759   0.556   4.150
  127DPPC   NC3 1513   7.479   8.916   5.950
  127DPPC   PO4 1514   7.438   8.975   5.650
  127DPPC   GL1 1515   7.472   8.935   5.350
  127DPPC   GL2 1516   7.354   8.860   5.350
  127DPPC   C1A 1517   7.515   8.956   5.050
  127DPPC   C2A 1518   7.423   8.904   4.750
  127DPPC   C3A 1519   7.510   8.911   4.450
  127DPPC   C4A 1520   7.494   8.919   4.150
  127DPPC   C1B 1521   7.206   8.848   5.050
  127DPPC   C2B 1522   7.280   8.796   4.750
  127DPPC   C3B 1523   7.266   8.872   4.450
  127DPPC   C4B 1524   7.238   8.806   4.150
  128DPPC   NC3 1525   2.095   7.257   5.950
  128DPPC   PO4 1526   2.116   7.271   5.650
  128DPPC   GL1 1527   2.127   7.277   5.350
  128DPPC   GL2 1528   1.935   7.389   5.350
  128DPPC   C1A 1529   2.049   7.328   5.050
  128DPPC   C2A 1530   2.131   7.316   4.750
  128DPPC   C3A 1531   2.136   7.264   4.450
  128DPPC   C4A 1532   2.044   7.347   4.150
  128DPPC   C1B 1533   1.900   7.397   5.050
  128DPPC   C2B 1534   1.878   7.451   4.750
  128DPPC   C3B 1535   1.858   7.384   4.450
  128DPPC   C4B 1536   1.898   7.428   4.150
  129DPPC   NC3 1537   8.270   5.720   5.950
  129DPPC   PO4 1538   8.202   5.742   5.650
  129DPPC   GL1 1539   8.247   5.752   5.350
  129DPPC   GL2 1540   8.168   5.843   5.350
  129DPPC   C1A 1541   8.247   5.777   5.050
  129DPPC   C2A 1542   8.233   5.721   4.750
  129DPPC   C3A 1543   8.227   5.758   4.450
  129DPPC   C4A 1544   8.263   5.772   4.150
  129DPPC   C1B 1545   8.065   5.858   5.050
  129DPPC   C2B 1546   8.066   5.943   4.750
  129DPPC   C3B 1547   8.012   5.895   4.450
  129DPPC   C4B 1548   8.073   5.932   4.150
  130DPPC   NC3 1549   0.420   5.903   5.950
  130DPPC   PO4 1550   0.433   5.934   5.650
  130DPPC   GL1 1551   0.376   5.971   5.350
  130DPPC   GL2 1552   0.477   5.804   5.350
  130DPPC   C1A 1553   0.457   5.951   5.050
  130DPPC   C2A 1554   0.414   5.928   4.750
  130DPPC   C3A 1555   0.427   5.983   4.450
  130DPPC   C4A 1556   0.365   5.972   4.150
  130DPPC   C1B 1557   0.450   5.659   5.050
  130DPPC   C2B 1558   0.483   5.670   4.750
  130DPPC   C3B 1559   0.503   5.695   4.450
  130DPPC   C4B 1560   0.414   5.716   4.150
  131DPPC   NC3 1561   2.790   9.808   5.950
  131DPPC   PO4 1562   2.779   9.818   5.650
  131DPPC   GL1 1563   2.808   9.780   5.350
  131DPPC   GL2 1564   2.728   9.641   5.350
  131DPPC   C1A 1565   2.728   9.764   5.050
  131DPPC   C2A 1566   2.784   9.745   4.750
  131DPPC   C3A 1567   2.720   9.805   4.450
  131DPPC   C4A 1568   2.785   9.764   4.150
  131DPPC   C1B 1569   2.719   9.504   5.050
  131DPPC   C2B 1570   2.695   9.562   4.750
  131DPPC   C3B 1571   2.682   9.554   4.450
  131DPPC   C4B 1572   2.755   9.583   4.150
  132DPPC   NC3 1573   8.804   7.351   5.950
  132DPPC   PO4 1574   8.806   7.304   5.650
  132DPPC   GL1 1575   8.761   7.317   5.350
  132DPPC   GL2 1576   8.894   7.334   5.350
  132DPPC   C1A 1577   8.829   7.314   5.050
  132DPPC   C2A 1578   8.785   7.273   4.750
  132DPPC   C3A 1579   8.810   7.335   4.450
  132DPPC   C4A 1580   8.816   7.336   4.150
  132DPPC   C1B 1581   8.977   7.366   5.050
  132DPPC   C2B 1582   9.052   7.460   4.750
  132DPPC   C3B 1583   8.971   7.418   4.450
  132DPPC   C4B 1584   8.970   7.397   4.150
  133DPPC   NC3 1585   1.880   8.972   5.950
  133DPPC   PO4 1586   1.843   8.948   5.650
  133DPPC   GL1 1587   1.838   8.923   5.350
  133DPPC   GL2 1588   1.926   8.886   5.350
  133DPPC   C1A 1589   1.883   8.962   5.050
  133DPPC   C2A 1590   1.850   8.996   4.750
  133DPPC   C3A 1591   1.854   8.929   4.450
  133DPPC   C4A 1592   1.828   8.995   4.150
  133DPPC   C1B 1593   2.059   8.867   5.050
  133DPPC   C2B 1594   2.040   8.854   4.750
  133DPPC   C3B 1595   2.082   8.806   4.450
  133DPPC   C4B 1596   2.111   8.820   4.150
  134DPPC   NC3 1597   1.935   1.806   5.950
  134DPPC   PO4 1598   1.995   1.856   5.650
  134DPPC   GL1 1599   1.974   1.823   5.350
  134DPPC   GL2 1600   1.964   1.995   5.350
  134DPPC   C1A 1601   1.995   1.809   5.050
  134DPPC   C2A 1602   1.991   1.823   4.750
  134DPPC   C3A 1603   1.940   1.826   4.450
  134DPPC   C4A 1604   1.904   1.853   4.150
  134DPPC   C1B 1605   2.008   2.078   5.050
  134DPPC   C2B 1606   2.039   2.102   4.750
  134DPPC   C3B 1607   2.022   2.094   4.450
  134DPPC   C4B 1608   2.028   2.112   4.150
  135DPPC   NC3 1609   2.142   8.125   5.950
  135DPPC   PO4 1610   2.102   8.063   5.650
  135DPPC   GL1 1611   2.055   8.058   5.350
  135DPPC   GL2 1612   2.022   8.098   5.350
  135DPPC   C1A 1613   2.128   8.082   5.050
  135DPPC   C2A 1614   2.055   8.117   4.750
  135DPPC   C3A 1615   2.102   8.138   4.450
  135DPPC   C4A 1616   2.105   8.117   4.150
  135DPPC   C1B 1617   1.850   8.143   5.050
  135DPPC   C2B 1618   1.824   8.146   4.750
  135DPPC   C3B 1619   1.888   8.176   4.450
  135DPPC   C4B 1620   1.874   8.145   4.150
  136DPPC   NC3 1621   2.617   8.185   5.950
  136DPPC   PO4 1622   2.591   8.175   5.650
  136DPPC   GL1 1623   2.679   8.151   5.350
  136DPPC   GL2 1624   2.748   8.108   5.350
  136DPPC   C1A 1625   2.660   8.227   5.050
  136DPPC   C2A 1626   2.675   8.201   4.750
  136DPPC   C3A 1627   2.622   8.232   4.450
  136DPPC   C4A 1628   2.622   8.210   4.150
  136DPPC   C1B 1629   2.852   8.108   5.050
  136DPPC   C2B 1630   2.843   8.089   4.750
  136DPPC   C3B 1631   2.895   8.064   4.450
  136DPPC   C4B 1632   2.865   8.041   4.150
  137DPPC   NC3 1633   4.903   9.665   5.950
  137DPPC   PO4 1634   4.938   9.638   5.650
  137DPPC   GL1 1635   4.950   9.606   5.350
  137DPPC   GL2 1636   5.005   9.690   5.350
  137DPPC   C1A 1637   4.930   9.638   5.050
  137DPPC   C2A 1638   4.932   9.610   4.750
  137DPPC   C3A 1639   4.890   9.673   4.450
  137DPPC   C4A 1640   4.952   9.601   4.150
  137DPPC   C1B 1641   5.213   9.669   5.050
  137DPPC   C2B 1642   5.185   9.740   4.750
  137DPPC   C3B 1643   5.161   9.676   4.450
  137DPPC   C4B 1644   5.142   9.659   4.150
  138DPPC   NC3 1645   4.252   1.897   5.950
  138DPPC   PO4 1646   4.295   1.811   5.650
  138DPPC   GL1 1647   4.296   1.895   5.350
  138DPPC   GL2 1648   4.236   1.947   5.350
  138DPPC   C1A 1649   4.257   1.866   5.050
  138DPPC   C2A 1650   4.270   1.829   4.750
  138DPPC   C3A 1651   4.310   1.897   4.450
  138DPPC   C4A 1652   4.303   1.898   4.150
  138DPPC   C1B 1653   4.255   2.065   5.050
  138DPPC   C2B 1654   4.292   2.124   4.750
  138DPPC   C3B 1655   4.286   2.054   4.450
  138DPPC   C4B 1656   4.262   2.095   4.150
  139DPPC   NC3 1657   6.466   7.225   5.950
  139DPPC   PO4 1658   6.515   7.283   5.650
  139DPPC   GL1 1659   6.545   7.269   5.350
  139DPPC   GL2 1660   6.597   7.339   5.350
  139DPPC   C1A 1661   6.498   7.232   5.050
  139DPPC   C2A 1662   6.498   7.274   4.750
  139DPPC   C3A 1663   6.548   7.227   4.450
  139DPPC   C4A 1664   6.551   7.231   4.150
  139DPPC   C1B 1665   6.717   7.472   5.050
  139DPPC   C2B 1666   6.698   7.423   4.750
  139DPPC   C3B 1667   6.622   7.408   4.450
  139DPPC   C4B 1668   6.677   7.442   4.150
  140DPPC   NC3 1669   8.290   7.378   5.950
  140DPPC   PO4 1670   8.279   7.375   5.650
  140DPPC   GL1 1671   8.264   7.362   5.350
  140DPPC   GL2 1672   8.138   7.377   5.350
  140DPPC   C1A 1673   8.207   7.435   5.050
  140DPPC   C2A 1674   8.214   7.391   4.750
  140DPPC   C3A 1675   8.210   7.403   4.450
  140DPPC   C4A 1676   8.216   7.359   4.150
  140DPPC   C1B 1677   7.994   7.287   5.050
  140DPPC   C2B 1678   7.981   7.275   4.750
  140DPPC   C3B 1679   7.963   7.334   4.450
  140DPPC   C4B 1680   8.026   7.286   4.150
  141DPPC   NC3 1681   2.032   5.121   5.950
  141DPPC   PO4 1682   2.057   5.081   5.650
  141DPPC   GL1 1683   2.033   5.111   5.350
  141DPPC   GL2 1684   1.937   5.089   5.350
  141DPPC   C1A 1685   2.054   5.123   5.050
  141DPPC   C2A 1686   2.095   5.102   4.750
  141DPPC   C3A 1687   2.105   5.113   4.450
  141DPPC   C4A 1688   2.090   5.170   4.150
  141DPPC   C1B 1689   1.858   4.969   5.050
  141DPPC   C2B 1690   1.908   4.934   4.750
  141DPPC   C3B 1691   1.903   4.960   4.450
  141DPPC   C4B 1692   1.841   4.999   4.150
  142DPPC   NC3 1693   6.666   1.046   5.950
  142DPPC   PO4 1694   6.644   1.058   5.650
  142DPPC   GL1 1695   6.588   1.085   5.350
  142DPPC   GL2 1696   6.611   1.227   5.350
  142DPPC   C1A 1697   6.680   1.049   5.050
  142DPPC   C2A 1698   6.646   1.119   4.750
  142DPPC   C3A 1699   6.646   1.039   4.450
  142DPPC   C4A 1700   6.623   1.134   4.150
  142DPPC   C1B 1701   6.581   1.272   5.050
  142DPPC   C2B 1702   6.552   1.358   4.750
  142DPPC   C3B 1703   6.578   1.291   4.450
  142DPPC   C4B 1704   6.519   1.319   4.150
  143DPPC   NC3 1705   5.770   8.049   5.950
  143DPPC   PO4 1706   5.804   7.996   5.650
  143DPPC   GL1 1707   5.776   7.984   5.350
  143DPPC   GL2 1708   5.856   8.172   5.350
  143DPPC   C1A 1709   5.763   8.044   5.050
  143DPPC   C2A 1710   5.720   7.992   4.750
  143DPPC   C3A 1711   5.719   8.060   4.450
  143DPPC   C4A 1712   5.788   8.029   4.150
  143DPPC   C1B 1713   5.912   8.219   5.050
  143DPPC   C2B 1714   5.918   8.264   4.750
  143DPPC   C3B 1715   5.906   8.282   4.450
  143DPPC   C4B 1716   5.872   8.232   4.150
  144DPPC   NC3 1717   4.329   9.509   5.950
  144DPPC   PO4 1718   4.284   9.515   5.650
  144DPPC   GL1 1719   4.303   9.550   5.350
  144DPPC   GL2 1720   4.302   9.651   5.350
  144DPPC   C1A 1721   4.330   9.503   5.050
  144DPPC   C2A 1722   4.319   9.562   4.750
  144DPPC   C3A 1723   4.283   9.561   4.450
  144DPPC   C4A 1724   4.284   9.566   4.150
  144DPPC   C1B 1725   4.306   9.745   5.050
  144DPPC   C2B 1726   4.282   9.782   4.750
  144DPPC   C3B 1727   4.292   9.775   4.450
  144DPPC   C4B 1728   4.300   9.798   4.150
  145DPPC   NC3 1729   7.236   4.346   5.950
  145DPPC   PO4 1730   7.211   4.356   5.650
  145DPPC   GL1 1731   7.214   4.286   5.350
  145DPPC   GL2 1732   7.327   4.330   5.350
  145DPPC   C1A 1733   7.247   4.363   5.050
  145DPPC   C2A 1734   7.217   4.276   4.750
  145DPPC   C3A 1735   7.235   4.322   4.450
  145DPPC   C4A 1736   7.283   4.330   4.150
  145DPPC   C1B 1737   7.431   4.191   5.050
  145DPPC   C2B 1738   7.508   4.263   4.750
  145DPPC   C3B 1739   7.474   4.194   4.450
  145DPPC   C4B 1740   7.522   4.206   4.150
  146DPPC   NC3 1741   9.656   8.201   5.950
  146DPPC   PO4 1742   9.665   8.240   5.650
  146DPPC   GL1 1743   9.674   8.241   5.350
  146DPPC   GL2 1744   9.623   8.102   5.350
  146DPPC   C1A 1745   9.697   8.247   5.050
  146DPPC   C2A 1746   9.728   8.256   4.750
  146DPPC   C3A 1747   9.715   8.202   4.450
  146DPPC   C4A 1748   9.681   8.290   4.150
  146DPPC   C1B 1749   9.638   8.004   5.050
  146DPPC   C2B 1750   9.664   7.979   4.750
  146DPPC   C3B 1751   9.630   8.041   4.450
  146DPPC   C4B 1752   9.597   8.053   4.150
  147DPPC   NC3 1753   9.783   5.149   5.950
  147DPPC   PO4 1754   9.784   5.150   5.650
  147DPPC   GL1 1755   9.792   5.113   5.350
  147DPPC   GL2 1756   9.702   5.069   5.350
  147DPPC   C1A 1757   9.734   5.074   5.050
  147DPPC   C2A 1758   9.763   5.128   4.750
  147DPPC   C3A 1759   9.767   5.132   4.450
  147DPPC   C4A 1760   9.756   5.084   4.150
  147DPPC   C1B 1761   9.547   4.998   5.050
  147DPPC   C2B 1762   9.510   5.006   4.750
  147DPPC   C3B 1763   9.538   5.004   4.450
  147DPPC   C4B 1764   9.540   4.993   4.150
  148DPPC   NC3 1765   6.736   9.641   5.950
  148DPPC   PO4 1766   6.727   9.656   5.650
  148DPPC   GL1 1767   6.713   9.624   5.350
  148DPPC   GL2 1768   6.611   9.701   5.350
  148DPPC   C1A 1769   6.709   9.709   5.050
  148DPPC   C2A 1770   6.675   9.651   4.750
  148DPPC   C3A 1771   6.675   9.645   4.450
  148DPPC   C4A 1772   6.747   9.677   4.150
  148DPPC   C1B 1773   6.455   9.656   5.050
  148DPPC   C2B 1774   6.495   9.679   4.750
  148DPPC   C3B 1775   6.418   9.707   4.450
  148DPPC   C4B 1776   6.431   9.683   4.150
  149DPPC   NC3 1777   8.206   2.761   5.950
  149DPPC   PO4 1778   8.216   2.767   5.650
  149DPPC   GL1 1779   8.200   2.751   5.350
  149DPPC   GL2 1780   8.122   2.729   5.350
  149DPPC   C1A 1781   8.283   2.693   5.050
  149DPPC   C2A 1782   8.272   2.695   4.750
  149DPPC   C3A 1783   8.236   2.736   4.450
  149DPPC   C4A 1784   8.240   2.722   4.150
  149DPPC   C1B 1785   8.014   2.752   5.050
  149DPPC   C2B 1786   7.978   2.718   4.750
  149DPPC   C3B 1787   8.041   2.776   4.450
  149DPPC   C4B 1788   8.017   2.732   4.150
  150DPPC   NC3 1789   5.020   7.275   5.950
  150DPPC   PO4 1790   5.043   7.231   5.650
  150DPPC   GL1 1791   4.969   7.288   5.350
  150DPPC   GL2 1792   5.086   7.343   5.350
  150DPPC   C1A 1793   5.044   7.279   5.050
  150DPPC   C2A 1794   5.032   7.198   4.750
  150DPPC   C3A 1795   5.036   7.273   4.450
  150DPPC   C4A 1796   5.000   7.247   4.150
  150DPPC   C1B 1797   5.075   7.470   5.050
  150DPPC   C2B 1798   5.062   7.442   4.750
  150DPPC   C3B 1799   5.086   7.444   4.450
  150DPPC   C4B 1800   5.083   7.463   4.150
  151DPPC   NC3 1801   2.694   8.794   5.950
  151DPPC   PO4 1802   2.724   8.821   5.650
  151DPPC   GL1 1803   2.711   8.745   5.350
  151DPPC   GL2 1804   2.717   8.918   5.350
  151DPPC   C1A 1805   2.716   8.807   5.050
  151DPPC   C2A 1806   2.686   8.778   4.750
  151DPPC   C3A 1807   2.658   8.775   4.450
  151DPPC   C4A 1808   2.728   8.736   4.150
  151DPPC   C1B 1809   2.813   9.021   5.050
  151DPPC   C2B 1810   2.840   9.035   4.750
  151DPPC   C3B 1811   2.791   9.053   4.450
  151DPPC   C4B 1812   2.816   8.983   4.150
  152DPPC   NC3 1813   8.852   3.617   5.950
  152DPPC   PO4 1814   8.759   3.599   5.650
  152DPPC   GL1 1815   8.827   3.629   5.350
  152DPPC   GL2 1816   8.939   3.505   5.350
  152DPPC   C1A 1817   8.785   3.643   5.050
  152DPPC   C2A 1818   8.812   3.583   4.750
  152DPPC   C3A 1819   8.759   3.609   4.450
  152DPPC   C4A 1820   8.820   3.562   4.150
  152DPPC   C1B 1821   8.984   3.463   5.050
  152DPPC   C2B 1822   8.967   3.376   4.750
  152DPPC   C3B 1823   8.960   3.450   4.450
  152DPPC   C4B 1824   8.975   3.405   4.150
  153DPPC   NC3 1825   9.066   4.272   5.950
  153DPPC   PO4 1826   9.007   4.300   5.650
  153DPPC   GL1 1827   8.970   4.349   5.350
  153DPPC   GL2 1828   8.902   4.263   5.350
  153DPPC   C1A 1829   8.982   4.279   5.050
  153DPPC   C2A 1830   9.033   4.329   4.750
  153DPPC   C3A 1831   9.065   4.293   4.450
  153DPPC   C4A 1832   9.037   4.256   4.150
  153DPPC   C1B 1833   8.763   4.292   5.050
  153DPPC   C2B 1834   8.782   4.276   4.750
  153DPPC   C3B 1835   8.744   4.284   4.450
  153DPPC   C4B 1836   8.724   4.280   4.150
  154DPPC   NC3 1837   4.178   3.498   5.950
  154DPPC   PO4 1838   4.127   3.477   5.650
  154DPPC   GL1 1839   4.135   3.536   5.350
  154DPPC   GL2 1840   4.250   3.513   5.350
  154DPPC   C1A 1841   4.131   3.533   5.050
  154DPPC   C2A 1842   4.200   3.491   4.750
  154DPPC   C3A 1843   4.201   3.517   4.450
  154DPPC   C4A 1844   4.157   3.468   4.150
  154DPPC   C1B 1845   4.424   3.495   5.050
  154DPPC   C2B 1846   4.364   3.571   4.750
  154DPPC   C3B 1847   4.371   3.519   4.450
  154DPPC   C4B 1848   4.408   3.546   4.150
  155DPPC   NC3 1849   2.035   5.902   5.950
  155DPPC   PO4 1850   2.042   5.937   5.650
  155DPPC   GL1 1851   2.050   5.928   5.350
  155DPPC   GL2 1852   1.985   5.844   5.350
  155DPPC   C1A 1853   2.103   5.889   5.050
  155DPPC   C2A 1854   2.087   5.933   4.750
  155DPPC   C3A 1855   2.014   5.886   4.450
  155DPPC   C4A 1856   2.039   5.915   4.150
  155DPPC   C1B 1857   1.876   5.707   5.050
  155DPPC   C2B 1858   1.879   5.692   4.750
  155DPPC   C3B 1859   1.850   5.683   4.450
  155DPPC   C4B 1860   1.923   5.711   4.150
  156DPPC   NC3 1861   0.287   8.993   5.950
  156DPPC   PO4 1862   0.286   8.953   5.650
  156DPPC   GL1 1863   0.353   8.974   5.350
  156DPPC   GL2 1864   0.408   8.914   5.350
  156DPPC   C1A 1865   0.372   8.936   5.050
  156DPPC   C2A 1866   0.374   8.929   4.750
  156DPPC   C3A 1867   0.351   9.021   4.450
  156DPPC   C4A 1868   0.344   8.952   4.150
  156DPPC   C1B 1869   0.516   8.774   5.050
  156DPPC   C2B 1870   0.546   8.779   4.750
  156DPPC   C3B 1871   0.514   8.811   4.450
  156DPPC   C4B 1872   0.559   8.831   4.150
  157DPPC   NC3 1873   6.710   8.084   5.950
  157DPPC   PO4 1874   6.691   8.104   5.650
  157DPPC   GL1 1875   6.721   8.067   5.350
  157DPPC   GL2 1876   6.593   8.146   5.350
  157DPPC   C1A 1877   6.698   8.149   5.050
  157DPPC   C2A 1878   6.664   8.070   4.750
  157DPPC   C3A 1879   6.751   8.070   4.450
  157DPPC   C4A 1880   6.712   8.060   4.150
  157DPPC   C1B 1881   6.488   8.113   5.050
  157DPPC   C2B 1882   6.438   8.104   4.750
  157DPPC   C3B 1883   6.469   8.175   4.450
  157DPPC   C4B 1884   6.500   8.113   4.150
  158DPPC   NC3 1885   3.665   8.011   5.950
  158DPPC   PO4 1886   3.649   8.014   5.650
  158DPPC   GL1 1887   3.611   8.088   5.350
  158DPPC   GL2 1888   3.549   8.146   5.350
  158DPPC   C1A 1889   3.604   8.085   5.050
  158DPPC   C2A 1890   3.617   8.062   4.750
  158DPPC   C3A 1891   3.624   8.063   4.450
  158DPPC   C4A 1892   3.634   8.087   4.150
  158DPPC   C1B 1893   3.415   8.222   5.050
  158DPPC   C2B 1894   3.385   8.218   4.750
  158DPPC   C3B 1895   3.415   8.183   4.450
  158DPPC   C4B 1896   3.432   8.188   4.150
  159DPPC   NC3 1897   5.114   5.922   5.950
  159DPPC   PO4 1898   5.164   5.927   5.650
  159DPPC   GL1 1899   5.167   5.926   5.350
  159DPPC   GL2 1900   5.062   5.773   5.350
  159DPPC   C1A 1901   5.106   5.959   5.050
  159DPPC   C2A 1902   5.122   5.920   4.750
  159DPPC   C3A 1903   5.093   5.878   4.450
  159DPPC   C4A 1904   5.105   5.927   4.150
  159DPPC   C1B 1905   4.981   5.707   5.050
  159DPPC   C2B 1906   4.963   5.725   4.750
  159DPPC   C3B 1907   4.984   5.750   4.450
  159DPPC   C4B 1908   4.984   5.763   4.150
  160DPPC   NC3 1909   7.996   3.588   5.950
  160DPPC   PO4 1910   8.012   3.627   5.650
  160DPPC   GL1 1911   7.990   3.588   5.350
  160DPPC   GL2 1912   8.120   3.463   5.350
  160DPPC   C1A 1913   8.015   3.597   5.050
  160DPPC   C2A 1914   8.051   3.537   4.750
  160DPPC   C3A 1915   8.061   3.579   4.450
  160DPPC   C4A 1916   8.051   3.555   4.150
  160DPPC   C1B 1917   8.186   3.454   5.050
  160DPPC   C2B 1918   8.225   3.429   4.750
  160DPPC   C3B 1919   8.239   3.414   4.450
  160DPPC   C4B 1920   8.190   3.456   4.150
  161DPPC   NC3 1921   3.469   2.603   5.950
  161DPPC   PO4 1922   3.501   2.591   5.650
  161DPPC   GL1 1923   3.445   2.632   5.350
  161DPPC   GL2 1924   3.465   2.717   5.350
  161DPPC   C1A 1925   3.467   2.614   5.050
  161DPPC   C2A 1926   3.542   2.649   4.750
  161DPPC   C3A 1927   3.514   2.612   4.450
  161DPPC   C4A 1928   3.532   2.638   4.150
  161DPPC   C1B 1929   3.576   2.836   5.050
  161DPPC   C2B 1930   3.500   2.852   4.750
  161DPPC   C3B 1931   3.511   2.862   4.450
  161DPPC   C4B 1932   3.524   2.846   4.150
  162DPPC   NC3 1933   7.356   2.825   5.950
  162DPPC   PO4 1934   7.405   2.856   5.650
  162DPPC   GL1 1935   7.439   2.833   5.350
  162DPPC   GL2 1936   7.397   2.733   5.350
  162DPPC   C1A 1937   7.345   2.907   5.050
  162DPPC   C2A 1938   7.445   2.853   4.750
  162DPPC   C3A 1939   7.436   2.836   4.450
  162DPPC   C4A 1940   7.403   2.869   4.150
  162DPPC   C1B 1941   7.307   2.626   5.050
  162DPPC   C2B 1942   7.321   2.587   4.750
  162DPPC   C3B 1943   7.362   2.655   4.450
  162DPPC   C4B 1944   7.279   2.642   4.150
  163DPPC   NC3 1945   6.692   8.862   5.950
  163DPPC   PO4 1946   6.698   8.869   5.650
  163DPPC   GL1 1947   6.736   8.808   5.350
  163DPPC   GL2 1948   6.634   8.849   5.350
  163DPPC   C1A 1949   6.687   8.835   5.050
  163DPPC   C2A 1950   6.659   8.810   4.750
  163DPPC   C3A 1951   6.733   8.857   4.450
  163DPPC   C4A 1952   6.688   8.866   4.150
  163DPPC   C1B 1953   6.479   8.938   5.050
  163DPPC   C2B 1954   6.496   8.947   4.750
  163DPPC   C3B 1955   6.504   8.964   4.450
  163DPPC   C4B 1956   6.469   8.970   4.150
  164DPPC   NC3 1957   5.079   6.513   5.950
  164DPPC   PO4 1958   4.991   6.476   5.650
  164DPPC   GL1 1959   5.026   6.469   5.350
  164DPPC   GL2 1960   5.031   6.578   5.350
  164DPPC   C1A 1961   5.073   6.416   5.050
  164DPPC   C2A 1962   5.044   6.444   4.750
  164DPPC   C3A 1963   5.033   6.460   4.450
  164DPPC   C4A 1964   5.003   6.419   4.150
  164DPPC   C1B 1965   5.068   6.738   5.050
  164DPPC   C2B 1966   5.050   6.732   4.750
  164DPPC   C3B 1967   5.086   6.726   4.450
  164DPPC   C4B 1968   5.072   6.733   4.150
  165DPPC   NC3 1969   5.726   4.173   5.950
  165DPPC   PO4 1970   5.785   4.120   5.650
  165DPPC   GL1 1971   5.778   4.154   5.350
  165DPPC   GL2 1972   5.857   4.263   5.350
  165DPPC   C1A 1973   5.794   4.146   5.050
  165DPPC   C2A 1974   5.722   4.175   4.750
  165DPPC   C3A 1975   5.721   4.203   4.450
  165DPPC   C4A 1976   5.783   4.180   4.150
  165DPPC   C1B 1977   5.848   4.403   5.050
  165DPPC   C2B 1978   5.872   4.439   4.750
  165DPPC   C3B 1979   5.907   4.365   4.450
  165DPPC   C4B 1980   5.915   4.373   4.150
  166DPPC   NC3 1981   1.104   9.740   5.950
  166DPPC   PO4 1982   1.132   9.757   5.650
  166DPPC   GL1 1983   1.119   9.713   5.350
  166DPPC   GL2 1984   1.201   9.616   5.350
  166DPPC   C1A 1985   1.106   9.727   5.050
  166DPPC   C2A 1986   1.088   9.717   4.750
  166DPPC   C3A 1987   1.110   9.666   4.450
  166DPPC   C4A 1988   1.116   9.694   4.150
  166DPPC   C1B 1989   1.345   9.633   5.050
  166DPPC   C2B 1990   1.301   9.582   4.750
  166DPPC   C3B 1991   1.271   9.600   4.450
  166DPPC   C4B 1992   1.359   9.588   4.150
  167DPPC   NC3 1993   5.214   5.126   5.950
  167DPPC   PO4 1994   5.175   5.073   5.650
  167DPPC   GL1 1995   5.191   5.097   5.350
  167DPPC   GL2 1996   5.025   5.038   5.350
  167DPPC   C1A 1997   5.118   5.081   5.050
  167DPPC   C2A 1998   5.198   5.109   4.750
  167DPPC   C3A 1999   5.204   5.076   4.450
  167DPPC   C4A 2000   5.143   5.137   4.150
  167DPPC   C1B 2001   4.941   5.013   5.050
  167DPPC   C2B 2002   4.891   4.980   4.750
  167DPPC   C3B 2003   4.893   5.030   4.450
  167DPPC   C4B 2004   4.905   5.000   4.150
  168DPPC   NC3 2005   1.307   8.079   5.950
  168DPPC   PO4 2006   1.301   8.086   5.650
  168DPPC   GL1 2007   1.306   8.063   5.350
  168DPPC   GL2 2008   1.218   8.114   5.350
  168DPPC   C1A 2009   1.340   8.058   5.050
  168DPPC   C2A 2010   1.321   8.112   4.750
  168DPPC   C3A 2011   1.295   8.066   4.450
  168DPPC   C4A 2012   1.366   8.044   4.150
  168DPPC   C1B 2013   1.106   8.193   5.050
  168DPPC   C2B 2014   1.056   8.192   4.750
  168DPPC   C3B 2015   1.097   8.114   4.450
  168DPPC   C4B 2016   1.041   8.138   4.150
  169DPPC   NC3 2017   6.487   6.661   5.950
  169DPPC   PO4 2018   6.532   6.664   5.650
  169DPPC   GL1 2019   6.522   6.673   5.350
  169DPPC   GL2 2020   6.543   6.558   5.350
  169DPPC   C1A 2021   6.538   6.626   5.050
  169DPPC   C2A 2022   6.449   6.685   4.750
  169DPPC   C3A 2023   6.530   6.629   4.450
  169DPPC   C4A 2024   6.469   6.668   4.150
  169DPPC   C1B 2025   6.648   6.474   5.050
  169DPPC   C2B 2026   6.654   6.488   4.750
  169DPPC   C3B 2027   6.719   6.514   4.450
  169DPPC   C4B 2028   6.687   6.464   4.150
  170DPPC   NC3 2029   1.812   7.365   2.050
  170DPPC   PO4 2030   1.836   7.356   2.350
  170DPPC   GL1 2031   1.902   7.448   2.650
  170DPPC   GL2 2032   2.021   7.326   2.650
  170DPPC   C1A 2033   1.888   7.384   2.950
  170DPPC   C2A 2034   1.809   7.445   3.250
  170DPPC   C3A 2035   1.811   7.425   3.550
  170DPPC   C4A 2036   1.851   7.411   3.850
  170DPPC   C1B 2037   2.093   7.344   2.950
  170DPPC   C2B 2038   2.042   7.293   3.250
  170DPPC   C3B 2039   2.137   7.311   3.550
  170DPPC   C4B 2040   2.128   7.344   3.850
  171DPPC   NC3 2041   8.284   3.524   2.050
  171DPPC   PO4 2042   8.208   3.505   2.350
  171DPPC   GL1 2043   8.249   3.533   2.650
  171DPPC   GL2 2044   8.132   3.479   2.650
  171DPPC   C1A 2045   8.296   3.474   2.950
  171DPPC   C2A 2046   8.268   3.481   3.250
  171DPPC   C3A 2047   8.299   3.451   3.550
  171DPPC   C4A 2048   8.225   3.493   3.850
  171DPPC   C1B 2049   8.027   3.500   2.950
  171DPPC   C2B 2050   8.014   3.560   3.250
  171DPPC   C3B 2051   7.960   3.527   3.550
  171DPPC   C4B 2052   7.973   3.484   3.850
  172DPPC   NC3 2053   9.764   0.499   2.050
  172DPPC   PO4 2054   9.796   0.527   2.350
  172DPPC   GL1 2055   9.786   0.494   2.650
  172DPPC   GL2 2056   9.674   0.388   2.650
  172DPPC   C1A 2057   9.744   0.511   2.950
  172DPPC   C2A 2058   9.791   0.507   3.250
  172DPPC   C3A 2059   9.729   0.501   3.550
  172DPPC   C4A 2060   9.755   0.480   3.850
  172DPPC   C1B 2061   9.533   0.364   2.950
  172DPPC   C2B 2062   9.616   0.374   3.250
  172DPPC   C3B 2063   9.550   0.399   3.550
  172DPPC   C4B 2064   9.572   0.398   3.850
  173DPPC   NC3 2065   9.727   1.331   2.050
  173DPPC   PO4 2066   9.738   1.292   2.350
  173DPPC   GL1 2067   9.704   1.321   2.650
  173DPPC   GL2 2068   9.618   1.187   2.650
  173DPPC   C1A 2069   9.739   1.326   2.950
  173DPPC   C2A 2070   9.700   1.318   3.250
  173DPPC   C3A 2071   9.699   1.264   3.550
  173DPPC   C4A 2072   9.754   1.321   3.850
  173DPPC   C1B 2073   9.556   1.139   2.950
  173DPPC   C2B 2074   9.621   1.075   3.250
  173DPPC   C3B 2075   9.609   1.136   3.550
  173DPPC   C4B 2076   9.584   1.079   3.850
  174DPPC   NC3 2077   5.179   4.929   2.050
  174DPPC   PO4 2078   5.146   4.960   2.350
  174DPPC   GL1 2079   5.175   4.994   2.650
  174DPPC   GL2 2080   5.008   5.057   2.650
  174DPPC   C1A 2081   5.174   4.920   2.950
  174DPPC   C2A 2082   5.171   4.997   3.250
  174DPPC   C3A 2083   5.103   4.912   3.550
  174DPPC   C4A 2084   5.123   4.994   3.850
  174DPPC   C1B 2085   4.920   5.116   2.950
  174DPPC   C2B 2086   4.987   5.132   3.250
  174DPPC   C3B 2087   4.995   5.138   3.550
  174DPPC   C4B 2088   4.920   5.180   3.850
  175DPPC   NC3 2089   8.789   9.515   2.050
  175DPPC   PO4 2090   8.782   9.602   2.350
  175DPPC   GL1 2091   8.838   9.576   2.650
  175DPPC   GL2 2092   8.869   9.685   2.650
  175DPPC   C1A 2093   8.865   9.577   2.950
  175DPPC   C2A 2094   8.850   9.605   3.250
  175DPPC   C3A 2095   8.808   9.550   3.550
  175DPPC   C4A 2096   8.785   9.533   3.850
  175DPPC   C1B 2097   8.956   9.736   2.950
  175DPPC   C2B 2098   8.917   9.722   3.250
  175DPPC   C3B 2099   8.923   9.803   3.550
  175DPPC   C4B 2100   8.929   9.727   3.850
  176DPPC   NC3 2101   9.708   4.206   2.050
  176DPPC   PO4 2102   9.653   4.120   2.350
  176DPPC   GL1 2103   9.653   4.137   2.650
  176DPPC   GL2 2104   9.684   4.305   2.650
  176DPPC   C1A 2105   9.671   4.152   2.950
  176DPPC   C2A 2106   9.722   4.137   3.250
  176DPPC   C3A 2107   9.706   4.120   3.550
  176DPPC   C4A 2108   9.731   4.148   3.850
  176DPPC   C1B 2109   9.645   4.437   2.950
  176DPPC   C2B 2110   9.658   4.380   3.250
  176DPPC   C3B 2111   9.663   4.403   3.550
  176DPPC   C4B 2112   9.648   4.361   3.850
  177DPPC   NC3 2113   1.989   3.598   2.050
  177DPPC   PO4 2114   1.960   3.598   2.350
  177DPPC   GL1 2115   1.987   3.640   2.650
  177DPPC   GL2 2116   1.948   3.473   2.650
  177DPPC   C1A 2117   1.935   3.610   2.950
  177DPPC   C2A 2118   1.990   3.611   3.250
  177DPPC   C3A 2119   1.975   3.657   3.550
  177DPPC   C4A 2120   2.013   3.625   3.850
  177DPPC   C1B 2121   1.954   3.370   2.950
  177DPPC   C2B 2122   2.002   3.403   3.250
  177DPPC   C3B 2123   1.948   3.377   3.550
  177DPPC   C4B 2124   1.940   3.416   3.850
  178DPPC   NC3 2125   3.373   3.542   2.050
  178DPPC   PO4 2126   3.372   3.510   2.350
  178DPPC   GL1 2127   3.401   3.507   2.650
  178DPPC   GL2 2128   3.546   3.539   2.650
  178DPPC   C1A 2129   3.347   3.533   2.950
  178DPPC   C2A 2130   3.404   3.538   3.250
  178DPPC   C3A 2131   3.424   3.522   3.550
  178DPPC   C4A 2132   3.411   3.573   3.850
  178DPPC   C1B 2133   3.653   3.493   2.950
  178DPPC   C2B 2134   3.654   3.451   3.250
  178DPPC   C3B 2135   3.679   3.499   3.550
  178DPPC   C4B 2136   3.620   3.467   3.850
  179DPPC   NC3 2137   5.982   1.286   2.050
  179DPPC   PO4 2138   5.892   1.224   2.350
  179DPPC   GL1 2139   5.926   1.221   2.650
  179DPPC   GL2 2140   5.854   1.178   2.650
  179DPPC   C1A 2141   5.957   1.218   2.950
  179DPPC   C2A 2142   5.986   1.263   3.250
  179DPPC   C3A 2143   5.891   1.200   3.550
  179DPPC   C4A 2144   5.899   1.200   3.850
  179DPPC   C1B 2145   5.656   1.200   2.950
  179DPPC   C2B 2146   5.681   1.164   3.250
  179DPPC   C3B 2147   5.733   1.178   3.550
  179DPPC   C4B 2148   5.723   1.130   3.850
  180DPPC   NC3 2149   8.281   0.477   2.050
  180DPPC   PO4 2150   8.282   0.409   2.350
  180DPPC   GL1 2151   8.235   0.394   2.650
  180DPPC   GL2 2152   8.134   0.443   2.650
  180DPPC   C1A 2153   8.253   0.430   2.950
  180DPPC   C2A 2154   8.247   0.419   3.250
  180DPPC   C3A 2155   8.267   0.463   3.550
  180DPPC   C4A 2156   8.243   0.432   3.850
  180DPPC   C1B 2157   7.965   0.465   2.950
  180DPPC   C2B 2158   8.011   0.398   3.250
  180DPPC   C3B 2159   7.954   0.409   3.550
  180DPPC   C4B 2160   7.958   0.461   3.850
  181DPPC   NC3 2161   3.582   6.481   2.050
  181DPPC   PO4 2162   3.527   6.491   2.350
  181DPPC   GL1 2163   3.543   6.418   2.650
  181DPPC   GL2 2164   3.526   6.546   2.650
  181DPPC   C1A 2165   3.504   6.454   2.950
  181DPPC   C2A 2166   3.548   6.494   3.250
  181DPPC   C3A 2167   3.498   6.496   3.550
  181DPPC   C4A 2168   3.579   6.467   3.850
  181DPPC   C1B 2169   3.528   6.717   2.950
  181DPPC   C2B 2170   3.501   6.712   3.250
  181DPPC   C3B 2171   3.536   6.714   3.550
  181DPPC   C4B 2172   3.511   6.694   3.850
  182DPPC   NC3 2173   6.715   2.711   2.050
  182DPPC   PO4 2174   6.751   2.691   2.350
  182DPPC   GL1 2175   6.717   2.691   2.650
  182DPPC   GL2 2176   6.549   2.739   2.650
  182DPPC   C1A 2177   6.761   2.777   2.950
  182DPPC   C2A 2178   6.669   2.684   3.250
  182DPPC   C3A 2179   6.736   2.693   3.550
  182DPPC   C4A 2180   6.763   2.772   3.850
  182DPPC   C1B 2181   6.494   2.791   2.950
  182DPPC   C2B 2182   6.480   2.739   3.250
  182DPPC   C3B 2183   6.470   2.792   3.550
  182DPPC   C4B 2184   6.416   2.799   3.850
  183DPPC   NC3 2185   3.541   9.541   2.050
  183DPPC   PO4 2186   3.549   9.594   2.350
  183DPPC   GL1 2187   3.616   9.598   2.650
  183DPPC   GL2 2188   3.529   9.711   2.650
  183DPPC   C1A 2189   3.623   9.599   2.950
  183DPPC   C2A 2190   3.527   9.578   3.250
  183DPPC   C3A 2191   3.527   9.571   3.550
  183DPPC   C4A 2192   3.612   9.558   3.850
  183DPPC   C1B 2193   3.494   9.764   2.950
  183DPPC   C2B 2194   3.464   9.814   3.250
  183DPPC   C3B 2195   3.479   9.781   3.550
  183DPPC   C4B 2196   3.403   9.745   3.850
  184DPPC   NC3 2197   3.341   5.042   2.050
  184DPPC   PO4 2198   3.419   4.988   2.350
  184DPPC   GL1 2199   3.357   5.084   2.650
  184DPPC   GL2 2200   3.537   5.073   2.650
  184DPPC   C1A 2201   3.369   4.996   2.950
  184DPPC   C2A 2202   3.356   5.085   3.250
  184DPPC   C3A 2203   3.369   5.071   3.550
  184DPPC   C4A 2204   3.364   5.025   3.850
  184DPPC   C1B 2205   3.650   5.081   2.950
  184DPPC   C2B 2206   3.611   5.090   3.250
  184DPPC   C3B 2207   3.614   5.111   3.550
  184DPPC   C4B 2208   3.638   5.077   3.850
  185DPPC   NC3 2209   7.987   4.209   2.050
  185DPPC   PO4 2210   8.060   4.228   2.350
  185DPPC   GL1 2211   7.993   4.250   2.650
  185DPPC   GL2 2212   8.148   4.325   2.650
  185DPPC   C1A 2213   8.050   4.169   2.950
  185DPPC   C2A 2214   8.025   4.243   3.250
  185DPPC   C3A 2215   8.031   4.206   3.550
  185DPPC   C4A 2216   8.016   4.227   3.850
  185DPPC   C1B 2217   8.250   4.386   2.950
  185DPPC   C2B 2218   8.233   4.294   3.250
  185DPPC   C3B 2219   8.225   4.373   3.550
  185DPPC   C4B 2220   8.254   4.369   3.850
  186DPPC   NC3 2221   1.148   8.049   2.050
  186DPPC   PO4 2222   1.125   8.086   2.350
  186DPPC   GL1 2223   1.088   8.081   2.650
  186DPPC   GL2 2224   1.203   8.149   2.650
  186DPPC   C1A 2225   1.081   8.009   2.950
  186DPPC   C2A 2226   1.105   8.089   3.250
  186DPPC   C3A 2227   1.059   8.064   3.550
  186DPPC   C4A 2228   1.078   8.006   3.850
  186DPPC   C1B 2229   1.355   8.216   2.950
  186DPPC   C2B 2230   1.261   8.230   3.250
  186DPPC   C3B 2231   1.325   8.233   3.550
  186DPPC   C4B 2232   1.317   8.224   3.850
  187DPPC   NC3 2233   2.707   8.052   2.050
  187DPPC   PO4 2234   2.701   8.031   2.350
  187DPPC   GL1 2235   2.678   8.062   2.650
  187DPPC   GL2 2236   2.767   8.120   2.650
  187DPPC   C1A 2237   2.669   8.031   2.950
  187DPPC   C2A 2238   2.712   8.002   3.250
  187DPPC   C3A 2239   2.685   7.966   3.550
  187DPPC   C4A 2240   2.739   8.037   3.850
  187DPPC   C1B 2241   2.750   8.223   2.950
  187DPPC   C2B 2242   2.770   8.201   3.250
  187DPPC   C3B 2243   2.761   8.212   3.550
  187DPPC   C4B 2244   2.781   8.287   3.850
  188DPPC   NC3 2245   5.142   8.830   2.050
  188DPPC   PO4 2246   5.200   8.861   2.350
  188DPPC   GL1 2247   5.109   8.811   2.650
  188DPPC   GL2 2248   5.099   8.863   2.650
  188DPPC   C1A 2249   5.178   8.864   2.950
  188DPPC   C2A 2250   5.133   8.867   3.250
  188DPPC   C3A 2251   5.113   8.796   3.550
  188DPPC   C4A 2252   5.147   8.869   3.850
  188DPPC   C1B 2253   4.969   8.931   2.950
  188DPPC   C2B 2254   4.940   8.928   3.250
  188DPPC   C3B 2255   4.914   8.997   3.550
  188DPPC   C4B 2256   4.903   8.980   3.850
  189DPPC   NC3 2257   0.463   8.997   2.050
  189DPPC   PO4 2258   0.382   8.974   2.350
  189DPPC   GL1 2259   0.375   9.023   2.650
  189DPPC   GL2 2260   0.465   8.884   2.650
  189DPPC   C1A 2261   0.428   9.021   2.950
  189DPPC   C2A 2262   0.470   8.984   3.250
  189DPPC   C3A 2263   0.412   9.062   3.550
  189DPPC   C4A 2264   0.380   8.992   3.850
  189DPPC   C1B 2265   0.491   8.731   2.950
  189DPPC   C2B 2266   0.495   8.748   3.250
  189DPPC   C3B 2267   0.438   8.729   3.550
  189DPPC   C4B 2268   0.416   8.732   3.850
  190DPPC   NC3 2269   1.221   6.431   2.050
  190DPPC   PO4 2270   1.188   6.494   2.350
  190DPPC   GL1 2271   1.202   6.496   2.650
  190DPPC   GL2 2272   1.177   6.568   2.650
  190DPPC   C1A 2273   1.168   6.510   2.950
  190DPPC   C2A 2274   1.246   6.469   3.250
  190DPPC   C3A 2275   1.239   6.505   3.550
  190DPPC   C4A 2276   1.156   6.446   3.850
  190DPPC   C1B 2277   1.251   6.763   2.950
  190DPPC   C2B 2278   1.254   6.748   3.250
  190DPPC   C3B 2279   1.192   6.674   3.550
  190DPPC   C4B 2280   1.187   6.742   3.850
  191DPPC   NC3 2281   8.956   5.936   2.050
  191DPPC   PO4 2282   8.998   5.928   2.350
  191DPPC   GL1 2283   9.032   5.852   2.650
  191DPPC   GL2 2284   8.926   5.795   2.650
  191DPPC   C1A 2285   9.027   5.877   2.950
  191DPPC   C2A 2286   9.004   5.913   3.250
  191DPPC   C3A 2287   9.046   5.880   3.550
  191DPPC   C4A 2288   9.039   5.895   3.850
  191DPPC   C1B 2289   8.801   5.712   2.950
  191DPPC   C2B 2290   8.761   5.723   3.250
  191DPPC   C3B 2291   8.797   5.742   3.550
  191DPPC   C4B 2292   8.813   5.725   3.850
  192DPPC   NC3 2293   7.268   3.576   2.050
  192DPPC   PO4 2294   7.239   3.661   2.350
  192DPPC   GL1 2295   7.252   3.570   2.650
  192DPPC   GL2 2296   7.379   3.489   2.650
  192DPPC   C1A 2297   7.335   3.646   2.950
  192DPPC   C2A 2298   7.318   3.657   3.250
  192DPPC   C3A 2299   7.262   3.586   3.550
  192DPPC   C4A 2300   7.258   3.575   3.850
  192DPPC   C1B 2301   7.463   3.435   2.950
  192DPPC   C2B 2302   7.471   3.372   3.250
  192DPPC   C3B 2303   7.445   3.408   3.550
  192DPPC   C4B 2304   7.391   3.393   3.850
  193DPPC   NC3 2305   0.529   5.784   2.050
  193DPPC   PO4 2306   0.603   5.820   2.350
  193DPPC   GL1 2307   0.516   5.790   2.650
  193DPPC   GL2 2308   0.393   5.790   2.650
  193DPPC   C1A 2309   0.558   5.844   2.950
  193DPPC   C2A 2310   0.515   5.788   3.250
  193DPPC   C3A 2311   0.513   5.871   3.550
  193DPPC   C4A 2312   0.550   5.861   3.850
  193DPPC   C1B 2313   0.328   5.843   2.950
  193DPPC   C2B 2314   0.359   5.779   3.250
  193DPPC   C3B 2315   0.297   5.805   3.550
  193DPPC   C4B 2316   0.275   5.800   3.850
  194DPPC   NC3 2317   2.097   0.302   2.050
  194DPPC   PO4 2318   2.094   0.307   2.350
  194DPPC   GL1 2319   2.102   0.296   2.650
  194DPPC   GL2 2320   1.945   0.432   2.650
  194DPPC   C1A 2321   2.028   0.295   2.950
  194DPPC   C2A 2322   2.079   0.394   3.250
  194DPPC   C3A 2323   2.087   0.313   3.550
  194DPPC   C4A 2324   2.045   0.310   3.850
  194DPPC   C1B 2325   1.923   0.512   2.950
  194DPPC   C2B 2326   1.898   0.563   3.250
  194DPPC   C3B 2327   1.909   0.516   3.550
  194DPPC   C4B 2328   1.929   0.525   3.850
  195DPPC   NC3 2329   1.083   5.877   2.050
  195DPPC   PO4 2330   1.140   5.905   2.350
  195DPPC   GL1 2331   1.061   5.853   2.650
  195DPPC   GL2 2332   1.173   5.842   2.650
  195DPPC   C1A 2333   1.071   5.861   2.950
  195DPPC   C2A 2334   1.131   5.903   3.250
  195DPPC   C3A 2335   1.103   5.926   3.550
  195DPPC   C4A 2336   1.060   5.891   3.850
  195DPPC   C1B 2337   1.273   5.805   2.950
  195DPPC   C2B 2338   1.263   5.706   3.250
  195DPPC   C3B 2339   1.340   5.714   3.550
  195DPPC   C4B 2340   1.291   5.800   3.850
  196DPPC   NC3 2341   2.816   5.950   2.050
  196DPPC   PO4 2342   2.778   5.915   2.350
  196DPPC   GL1 2343   2.838   5.907   2.650
  196DPPC   GL2 2344   2.716   5.793   2.650
  196DPPC   C1A 2345   2.778   5.935   2.950
  196DPPC   C2A 2346   2.805   5.902   3.250
  196DPPC   C3A 2347   2.797   5.953   3.550
  196DPPC   C4A 2348   2.764   5.902   3.850
  196DPPC   C1B 2349   2.721   5.745   2.950
  196DPPC   C2B 2350   2.658   5.690   3.250
  196DPPC   C3B 2351   2.698   5.735   3.550
  196DPPC   C4B 2352   2.693   5.695   3.850
  197DPPC   NC3 2353   7.981   6.542   2.050
  197DPPC   PO4 2354   8.036   6.599   2.350
  197DPPC   GL1 2355   7.979   6.572   2.650
  197DPPC   GL2 2356   8.081   6.587   2.650
  197DPPC   C1A 2357   8.031   6.552   2.950
  197DPPC   C2A 2358   7.960   6.592   3.250
  197DPPC   C3A 2359   8.041   6.601   3.550
  197DPPC   C4A 2360   8.051   6.540   3.850
  197DPPC   C1B 2361   8.260   6.646   2.950
  197DPPC   C2B 2362   8.230   6.599   3.250
  197DPPC   C3B 2363   8.205   6.613   3.550
  197DPPC   C4B 2364   8.264   6.594   3.850
  198DPPC   NC3 2365   1.360   1.941   2.050
  198DPPC   PO4 2366   1.287   1.920   2.350
  198DPPC   GL1 2367   1.317   1.939   2.650
  198DPPC   GL2 2368   1.174   1.982   2.650
  198DPPC   C1A 2369   1.325   1.949   2.950
  198DPPC   C2A 2370   1.362   1.937   3.250
  198DPPC   C3A 2371   1.282   1.955   3.550
  198DPPC   C4A 2372   1.311   1.934   3.850
  198DPPC   C1B 2373   1.120   2.045   2.950
  198DPPC   C2B 2374   1.118   1.984   3.250
  198DPPC   C3B 2375   1.045   2.010   3.550
  198DPPC   C4B 2376   1.097   2.044   3.850
  199DPPC   NC3 2377   3.610   1.074   2.050
  199DPPC   PO4 2378   3.561   1.112   2.350
  199DPPC   GL1 2379   3.542   1.070   2.650
  199DPPC   GL2 2380   3.463   1.188   2.650
  199DPPC   C1A 2381   3.561   1.080   2.950
  199DPPC   C2A 2382   3.562   1.078   3.250
  199DPPC   C3A 2383   3.572   1.088   3.550
  199DPPC   C4A 2384   3.583   1.076   3.850
  199DPPC   C1B 2385   3.440   1.307   2.950
  199DPPC   C2B 2386   3.496   1.335   3.250
  199DPPC   C3B 2387   3.467   1.306   3.550
  199DPPC   C4B 2388   3.416   1.271   3.850
  200DPPC   NC3 2389   8.011   8.816   2.050
  200DPPC   PO4 2390   8.060   8.852   2.350
  200DPPC   GL1 2391   8.066   8.859   2.650
  200DPPC   GL2 2392   8.133   8.936   2.650
  200DPPC   C1A 2393   8.040   8.832   2.950
  200DPPC   C2A 2394   8.080   8.831   3.250
  200DPPC   C3A 2395   8.023   8.806   3.550
  200DPPC   C4A 2396   8.076   8.775   3.850
  200DPPC   C1B 2397   8.237   8.936   2.950
  200DPPC   C2B 2398   8.229   9.003   3.250
  200DPPC   C3B 2399   8.201   8.929   3.550
  200DPPC   C4B 2400   8.256   8.969   3.850
  201DPPC   NC3 2401   1.105   0.296   2.050
  201DPPC   PO4 2402   1.123   0.360   2.350
  201DPPC   GL1 2403   1.112   0.370   2.650
  201DPPC   GL2 2404   1.184   0.449   2.650
  201DPPC   C1A 2405   1.119   0.352   2.950
  201DPPC   C2A 2406   1.162   0.340   3.250
  201DPPC   C3A 2407   1.090   0.326   3.550
  201DPPC   C4A 2408   1.186   0.295   3.850
  201DPPC   C1B 2409   1.225   0.491   2.950
  201DPPC   C2B 2410   1.224   0.500   3.250
  201DPPC   C3B 2411   1.222   0.546   3.550
  201DPPC   C4B 2412   1.281   0.539   3.850
  202DPPC   NC3 2413   6.725   9.004   2.050
  202DPPC   PO4 2414   6.656   8.939   2.350
  202DPPC   GL1 2415   6.646   9.016   2.650
  202DPPC   GL2 2416   6.568   8.926   2.650
  202DPPC   C1A 2417   6.644   8.965   2.950
  202DPPC   C2A 2418   6.688   9.015   3.250
  202DPPC   C3A 2419   6.710   9.017   3.550
  202DPPC   C4A 2420   6.639   9.009   3.850
  202DPPC   C1B 2421   6.513   8.783   2.950
  202DPPC   C2B 2422   6.505   8.777   3.250
  202DPPC   C3B 2423   6.490   8.775   3.550
  202DPPC   C4B 2424   6.493   8.766   3.850
  203DPPC   NC3 2425   8.906   1.049   2.050
  203DPPC   PO4 2426   8.898   1.070   2.350
  203DPPC   GL1 2427   8.907   1.069   2.650
  203DPPC   GL2 2428   8.858   1.189   2.650
  203DPPC   C1A 2429   8.890   1.042   2.950
  203DPPC   C2A 2430   8.926   1.039   3.250
  203DPPC   C3A 2431   8.873   1.106   3.550
  203DPPC   C4A 2432   8.955   1.052   3.850
  203DPPC   C1B 2433   8.922   1.336   2.950
  203DPPC   C2B 2434   8.853   1.371   3.250
  203DPPC   C3B 2435   8.861   1.310   3.550
  203DPPC   C4B 2436   8.931   1.300   3.850
  204DPPC   NC3 2437   7.247   5.841   2.050
  204DPPC   PO4 2438   7.193   5.787   2.350
  204DPPC   GL1 2439   7.199   5.806   2.650
  204DPPC   GL2 2440   7.391   5.793   2.650
  204DPPC   C1A 2441   7.227   5.867   2.950
  204DPPC   C2A 2442   7.217   5.798   3.250
  204DPPC   C3A 2443   7.186   5.824   3.550
  204DPPC   C4A 2444   7.280   5.842   3.850
  204DPPC   C1B 2445   7.498   5.808   2.950
  204DPPC   C2B 2446   7.522   5.852   3.250
  204DPPC   C3B 2447   7.466   5.803   3.550
  204DPPC   C4B 2448   7.495   5.773   3.850
  205DPPC   NC3 2449   4.370   2.054   2.050
  205DPPC   PO4 2450   4.351   2.046   2.350
  205DPPC   GL1 2451   4.361   2.036   2.650
  205DPPC   GL2 2452   4.260   2.019   2.650
  205DPPC   C1A 2453   4.382   2.101   2.950
  205DPPC   C2A 2454   4.335   2.086   3.250
  205DPPC   C3A 2455   4.329   2.054   3.550
  205DPPC   C4A 2456   4.378   2.070   3.850
  205DPPC   C1B 2457   4.227   1.894   2.950
  205DPPC   C2B 2458   4.233   1.901   3.250
  205DPPC   C3B 2459   4.197   1.858   3.550
  205DPPC   C4B 2460   4.207   1.834   3.850
  206DPPC   NC3 2461   5.032   7.976   2.050
  206DPPC   PO4 2462   5.050   8.037   2.350
  206DPPC   GL1 2463   5.088   7.965   2.650
  206DPPC   GL2 2464   5.093   8.092   2.650
  206DPPC   C1A 2465   5.036   7.967   2.950
  206DPPC   C2A 2466   5.072   7.995   3.250
  206DPPC   C3A 2467   5.114   8.019   3.550
  206DPPC   C4A 2468   5.062   7.974   3.850
  206DPPC   C1B 2469   5.053   8.241   2.950
  206DPPC   C2B 2470   4.998   8.216   3.250
  206DPPC   C3B 2471   5.007   8.269   3.550
  206DPPC   C4B 2472   5.054   8.216   3.850
  207DPPC   NC3 2473   5.086   2.114   2.050
  207DPPC   PO4 2474   5.053   2.077   2.350
  207DPPC   GL1 2475   5.108   2.129   2.650
  207DPPC   GL2 2476   5.066   1.973   2.650
  207DPPC   C1A 2477   5.112   2.075   2.950
  207DPPC   C2A 2478   5.089   2.101   3.250
  207DPPC   C3A 2479   5.069   2.109   3.550
  207DPPC   C4A 2480   5.055   2.131   3.850
  207DPPC   C1B 2481   5.022   1.892   2.950
  207DPPC   C2B 2482   5.038   1.811   3.250
  207DPPC   C3B 2483   5.009   1.877   3.550
  207DPPC   C4B 2484   5.064   1.812   3.850
  208DPPC   NC3 2485   8.774   1.977   2.050
  208DPPC   PO4 2486   8.744   2.003   2.350
  208DPPC   GL1 2487   8.764   2.007   2.650
  208DPPC   GL2 2488   8.909   2.012   2.650
  208DPPC   C1A 2489   8.761   2.035   2.950
  208DPPC   C2A 2490   8.743   1.995   3.250
  208DPPC   C3A 2491   8.814   2.015   3.550
  208DPPC   C4A 2492   8.761   2.013   3.850
  208DPPC   C1B 2493   8.982   1.938   2.950
  208DPPC   C2B 2494   8.984   2.004   3.250
  208DPPC   C3B 2495   9.050   2.005   3.550
  208DPPC   C4B 2496   9.048   1.913   3.850
  209DPPC   NC3 2497   5.134   7.412   2.050
  209DPPC   PO4 2498   5.193   7.406   2.350
  209DPPC   GL1 2499   5.112   7.422   2.650
  209DPPC   GL2 2500   5.058   7.367   2.650
  209DPPC   C1A 2501   5.168   7.405   2.950
  209DPPC   C2A 2502   5.167   7.384   3.250
  209DPPC   C3A 2503   5.178   7.463   3.550
  209DPPC   C4A 2504   5.197   7.431   3.850
  209DPPC   C1B 2505   4.961   7.301   2.950
  209DPPC   C2B 2506   4.912   7.318   3.250
  209DPPC   C3B 2507   4.975   7.306   3.550
  209DPPC   C4B 2508   4.905   7.298   3.850
  210DPPC   NC3 2509   4.184   4.298   2.050
  210DPPC   PO4 2510   4.135   4.347   2.350
  210DPPC   GL1 2511   4.115   4.332   2.650
  210DPPC   GL2 2512   4.254   4.261   2.650
  210DPPC   C1A 2513   4.184   4.362   2.950
  210DPPC   C2A 2514   4.138   4.352   3.250
  210DPPC   C3A 2515   4.136   4.343   3.550
  210DPPC   C4A 2516   4.139   4.353   3.850
  210DPPC   C1B 2517   4.367   4.218   2.950
  210DPPC   C2B 2518   4.419   4.201   3.250
  210DPPC   C3B 2519   4.406   4.197   3.550
  210DPPC   C4B 2520   4.444   4.265   3.850
  211DPPC   NC3 2521   4.269   5.158   2.050
  211DPPC   PO4 2522   4.217   5.218   2.350
  211DPPC   GL1 2523   4.210   5.215   2.650
  211DPPC   GL2 2524   4.286   5.018   2.650
  211DPPC   C1A 2525   4.227   5.198   2.950
  211DPPC   C2A 2526   4.277   5.146   3.250
  211DPPC   C3A 2527   4.236   5.180   3.550
  211DPPC   C4A 2528   4.237   5.198   3.850
  211DPPC   C1B 2529   4.336   4.950   2.950
  211DPPC   C2B 2530   4.305   4.888   3.250
  211DPPC   C3B 2531   4.283   4.917   3.550
  211DPPC   C4B 2532   4.282   4.971   3.850
  212DPPC   NC3 2533   2.121   5.768   2.050
  212DPPC   PO4 2534   2.075   5.758   2.350
  212DPPC   GL1 2535   2.066   5.724   2.650
  212DPPC   GL2 2536   2.012   5.809   2.650
  212DPPC   C1A 2537   2.101   5.762   2.950
  212DPPC   C2A 2538   2.055   5.813   3.250
  212DPPC   C3A 2539   2.109   5.766   3.550
  212DPPC   C4A 2540   2.078   5.747   3.850
  212DPPC   C1B 2541   1.857   5.839   2.950
  212DPPC   C2B 2542   1.854   5.921   3.250
  212DPPC   C3B 2543   1.877   5.825   3.550
  212DPPC   C4B 2544   1.853   5.906   3.850
  213DPPC   NC3 2545   4.196   9.546   2.050
  213DPPC   PO4 2546   4.204   9.590   2.350
  213DPPC   GL1 2547   4.277   9.534   2.650
  213DPPC   GL2 2548   4.312   9.617   2.650
  213DPPC   C1A 2549   4.195   9.585   2.950
  213DPPC   C2A 2550   4.268   9.543   3.250
  213DPPC   C3A 2551   4.243   9.588   3.550
  213DPPC   C4A 2552   4.218   9.519   3.850
  213DPPC   C1B 2553   4.329   9.815   2.950
  213DPPC   C2B 2554   4.344   9.737   3.250
  213DPPC   C3B 2555   4.298   9.752   3.550
  213DPPC   C4B 2556   4.293   9.811   3.850
  214DPPC   NC3 2557   6.714   3.642   2.050
  214DPPC   PO4 2558   6.686   3.577   2.350
  214DPPC   GL1 2559   6.714   3.607   2.650
  214DPPC   GL2 2560   6.614   3.517   2.650
  214DPPC   C1A 2561   6.710   3.574   2.950
  214DPPC   C2A 2562   6.651   3.618   3.250
  214DPPC   C3A 2563   6.717   3.568   3.550
  214DPPC   C4A 2564   6.700   3.647   3.850
  214DPPC   C1B 2565   6.541   3.372   2.950
  214DPPC   C2B 2566   6.485   3.454   3.250
  214DPPC   C3B 2567   6.542   3.413   3.550
  214DPPC   C4B 2568   6.465   3.428   3.850
  215DPPC   NC3 2569   8.251   5.935   2.050
  215DPPC   PO4 2570   8.260   5.922   2.350
  215DPPC   GL1 2571   8.211   5.927   2.650
  215DPPC   GL2 2572   8.108   5.863   2.650
  215DPPC   C1A 2573   8.209   5.858   2.950
  215DPPC   C2A 2574   8.186   5.936   3.250
  215DPPC   C3A 2575   8.176   5.909   3.550
  215DPPC   C4A 2576   8.188   5.951   3.850
  215DPPC   C1B 2577   7.991   5.773   2.950
  215DPPC   C2B 2578   8.052   5.707   3.250
  215DPPC   C3B 2579   8.029   5.727   3.550
  215DPPC   C4B 2580   8.021   5.780   3.850
  216DPPC   NC3 2581   1.282   1.222   2.050
  216DPPC   PO4 2582   1.341   1.230   2.350
  216DPPC   GL1 2583   1.264   1.289   2.650
  216DPPC   GL2 2584   1.252   1.197   2.650
  216DPPC   C1A 2585   1.287   1.306   2.950
  216DPPC   C2A 2586   1.351   1.243   3.250
  216DPPC   C3A 2587   1.324   1.291   3.550
  216DPPC   C4A 2588   1.308   1.231   3.850
  216DPPC   C1B 2589   1.072   1.138   2.950
  216DPPC   C2B 2590   1.089   1.109   3.250
  216DPPC   C3B 2591   1.128   1.141   3.550
  216DPPC   C4B 2592   1.134   1.120   3.850
  217DPPC   NC3 2593   8.083   1.114   2.050
  217DPPC   PO4 2594   8.105   1.083   2.350
  217DPPC   GL1 2595   8.071   1.083   2.650
  217DPPC   GL2 2596   8.111   1.223   2.650
  217DPPC   C1A 2597   8.105   1.121   2.950
  217DPPC   C2A 2598   8.104   1.091   3.250
  217DPPC   C3A 2599   8.032   1.090   3.550
  217DPPC   C4A 2600   8.104   1.054   3.850
  217DPPC   C1B 2601   8.189   1.296   2.950
  217DPPC   C2B 2602   8.175   1.299   3.250
  217DPPC   C3B 2603   8.160   1.272   3.550
  217DPPC   C4B 2604   8.177   1.275   3.850
  218DPPC   NC3 2605   7.248   1.931   2.050
  218DPPC   PO4 2606   7.268   1.938   2.350
  218DPPC   GL1 2607   7.276   1.923   2.650
  218DPPC   GL2 2608   7.355   1.957   2.650
  218DPPC   C1A 2609   7.211   1.925   2.950
  218DPPC   C2A 2610   7.187   1.983   3.250
  218DPPC   C3A 2611   7.255   1.982   3.550
  218DPPC   C4A 2612   7.207   1.927   3.850
  218DPPC   C1B 2613   7.443   1.952   2.950
  218DPPC   C2B 2614   7.511   1.993   3.250
  218DPPC   C3B 2615   7.529   1.980   3.550
  218DPPC   C4B 2616   7.455   2.018   3.850
  219DPPC   NC3 2617   2.073   2.646   2.050
  219DPPC   PO4 2618   2.009   2.672   2.350
  219DPPC   GL1 2619   2.008   2.681   2.650
  219DPPC   GL2 2620   1.944   2.775   2.650
  219DPPC   C1A 2621   1.999   2.631   2.950
  219DPPC   C2A 2622   2.027   2.633   3.250
  219DPPC   C3A 2623   2.017   2.610   3.550
  219DPPC   C4A 2624   2.001   2.634   3.850
  219DPPC   C1B 2625   1.890   2.849   2.950
  219DPPC   C2B 2626   1.917   2.804   3.250
  219DPPC   C3B 2627   1.865   2.838   3.550
  219DPPC   C4B 2628   1.913   2.795   3.850
  220DPPC   NC3 2629   6.485   0.336   2.050
  220DPPC   PO4 2630   6.440   0.358   2.350
  220DPPC   GL1 2631   6.502   0.413   2.650
  220DPPC   GL2 2632   6.616   0.443   2.650
  220DPPC   C1A 2633   6.467   0.364   2.950
  220DPPC   C2A 2634   6.465   0.363   3.250
  220DPPC   C3A 2635   6.478   0.391   3.550
  220DPPC   C4A 2636   6.482   0.387   3.850
  220DPPC   C1B 2637   6.684   0.482   2.950
  220DPPC   C2B 2638   6.680   0.550   3.250
  220DPPC   C3B 2639   6.677   0.490   3.550
  220DPPC   C4B 2640   6.705   0.539   3.850
  221DPPC   NC3 2641   8.110   2.860   2.050
  221DPPC   PO4 2642   8.117   2.905   2.350
  221DPPC   GL1 2643   8.107   2.873   2.650
  221DPPC   GL2 2644   8.165   2.722   2.650
  221DPPC   C1A 2645   8.189   2.823   2.950
  221DPPC   C2A 2646   8.137   2.888   3.250
  221DPPC   C3A 2647   8.188   2.873   3.550
  221DPPC   C4A 2648   8.100   2.902   3.850
  221DPPC   C1B 2649   8.156   2.638   2.950
  221DPPC   C2B 2650   8.088   2.578   3.250
  221DPPC   C3B 2651   8.137   2.602   3.550
  221DPPC   C4B 2652   8.058   2.667   3.850
  222DPPC   NC3 2653   5.803   2.623   2.050
  222DPPC   PO4 2654   5.818   2.581   2.350
  222DPPC   GL1 2655   5.812   2.572   2.650
  222DPPC   GL2 2656   5.852   2.708   2.650
  222DPPC   C1A 2657   5.790   2.658   2.950
  222DPPC   C2A 2658   5.790   2.634   3.250
  222DPPC   C3A 2659   5.835   2.652   3.550
  222DPPC   C4A 2660   5.818   2.637   3.850
  222DPPC   C1B 2661   5.772   2.877   2.950
  222DPPC   C2B 2662   5.808   2.856   3.250
  222DPPC   C3B 2663   5.771   2.878   3.550
  222DPPC   C4B 2664   5.788   2.855   3.850
  223DPPC   NC3 2665   0.482   3.347   2.050
  223DPPC   PO4 2666   0.489   3.348   2.350
  223DPPC   GL1 2667   0.476   3.360   2.650
  223DPPC   GL2 2668   0.438   3.490   2.650
  223DPPC   C1A 2669   0.423   3.412   2.950
  223DPPC   C2A 2670   0.453   3.396   3.250
  223DPPC   C3A 2671   0.444   3.366   3.550
  223DPPC   C4A 2672   0.461   3.351   3.850
  223DPPC   C1B 2673   0.460   3.683   2.950
  223DPPC   C2B 2674   0.433   3.647   3.250
  223DPPC   C3B 2675   0.393   3.651   3.550
  223DPPC   C4B 2676   0.416   3.612   3.850
  224DPPC   NC3 2677   8.916   8.067   2.050
  224DPPC   PO4 2678   8.957   8.011   2.350
  224DPPC   GL1 2679   8.923   7.981   2.650
  224DPPC   GL2 2680   8.929   8.137   2.650
  224DPPC   C1A 2681   8.930   8.053   2.950
  224DPPC   C2A 2682   8.971   8.066   3.250
  224DPPC   C3A 2683   8.939   8.038   3.550
  224DPPC   C4A 2684   8.957   8.052   3.850
  224DPPC   C1B 2685   8.807   8.254   2.950
  224DPPC   C2B 2686   8.836   8.270   3.250
  224DPPC   C3B 2687   8.856   8.269   3.550
  224DPPC   C4B 2688   8.806   8.279   3.850
  225DPPC   NC3 2689   6.663   1.252   2.050
  225DPPC   PO4 2690   6.731   1.271   2.350
  225DPPC   GL1 2691   6.663   1.239   2.650
  225DPPC   GL2 2692   6.582   1.165   2.650
  225DPPC   C1A 2693   6.666   1.282   2.950
  225DPPC   C2A 2694   6.728   1.308   3.250
  225DPPC   C3A 2695   6.683   1.307   3.550
  225DPPC   C4A 2696   6.722   1.215   3.850
  225DPPC   C1B 2697   6.474   1.128   2.950
  225DPPC   C2B 2698   6.475   1.159   3.250
  225DPPC   C3B 2699   6.483   1.147   3.550
  225DPPC   C4B 2700   6.483   1.151   3.850
  226DPPC   NC3 2701   0.301   5.055   2.050
  226DPPC   PO4 2702   0.262   5.074   2.350
  226DPPC   GL1 2703   0.311   5.038   2.650
  226DPPC   GL2 2704   0.399   5.073   2.650
  226DPPC   C1A 2705   0.278   4.978   2.950
  226DPPC   C2A 2706   0.266   5.076   3.250
  226DPPC   C3A 2707   0.333   5.042   3.550
  226DPPC   C4A 2708   0.334   5.045   3.850
  226DPPC   C1B 2709   0.577   5.122   2.950
  226DPPC   C2B 2710   0.568   5.090   3.250
  226DPPC   C3B 2711   0.530   5.092   3.550
  226DPPC   C4B 2712   0.541   5.115   3.850
  227DPPC   NC3 2713   5.740   8.145   2.050
  227DPPC   PO4 2714   5.731   8.176   2.350
  227DPPC   GL1 2715   5.648   8.175   2.650
  227DPPC   GL2 2716   5.850   8.176   2.650
  227DPPC   C1A 2717   5.712   8.131   2.950
  227DPPC   C2A 2718   5.709   8.169   3.250
  227DPPC   C3A 2719   5.667   8.174   3.550
  227DPPC   C4A 2720   5.697   8.099   3.850
  227DPPC   C1B 2721   5.907   8.134   2.950
  227DPPC   C2B 2722   5.941   8.092   3.250
  227DPPC   C3B 2723   5.894   8.140   3.550
  227DPPC   C4B 2724   5.910   8.154   3.850
  228DPPC   NC3 2725   0.326   8.198   2.050
  228DPPC   PO4 2726   0.263   8.139   2.350
  228DPPC   GL1 2727   0.346   8.200   2.650
  228DPPC   GL2 2728   0.385   8.171   2.650
  228DPPC   C1A 2729   0.276   8.194   2.950
  228DPPC   C2A 2730   0.298   8.108   3.250
  228DPPC   C3A 2731   0.345   8.108   3.550
  228DPPC   C4A 2732   0.318   8.132   3.850
  228DPPC   C1B 2733   0.552   8.104   2.950
  228DPPC   C2B 2734   0.512   8.074   3.250
  228DPPC   C3B 2735   0.581   8.144   3.550
  228DPPC   C4B 2736   0.547   8.060   3.850
  229DPPC   NC3 2737   7.219   6.666   2.050
  229DPPC   PO4 2738   7.311   6.635   2.350
  229DPPC   GL1 2739   7.237   6.706   2.650
  229DPPC   GL2 2740   7.343   6.548   2.650
  229DPPC   C1A 2741   7.214   6.693   2.950
  229DPPC   C2A 2742   7.231   6.678   3.250
  229DPPC   C3A 2743   7.260   6.647   3.550
  229DPPC   C4A 2744   7.280   6.631   3.850
  229DPPC   C1B 2745   7.478   6.487   2.950
  229DPPC   C2B 2746   7.429   6.504   3.250
  229DPPC   C3B 2747   7.483   6.511   3.550
  229DPPC   C4B 2748   7.490   6.549   3.850
  230DPPC   NC3 2749   2.675   7.420   2.050
  230DPPC   PO4 2750   2.622   7.478   2.350
  230DPPC   GL1 2751   2.699   7.442   2.650
  230DPPC   GL2 2752   2.757   7.356   2.650
  230DPPC   C1A 2753   2.696   7.465   2.950
  230DPPC   C2A 2754   2.664   7.400   3.250
  230DPPC   C3A 2755   2.701   7.492   3.550
  230DPPC   C4A 2756   2.624   7.424   3.850
  230DPPC   C1B 2757   2.779   7.292   2.950
  230DPPC   C2B 2758   2.859   7.276   3.250
  230DPPC   C3B 2759   2.789   7.220   3.550
  230DPPC   C4B 2760   2.811   7.282   3.850
  231DPPC   NC3 2761   1.276   3.391   2.050
  231DPPC   PO4 2762   1.260   3.391   2.350
  231DPPC   GL1 2763   1.315   3.394   2.650
  231DPPC   GL2 2764   1.168   3.505   2.650
  231DPPC   C1A 2765   1.272   3.427   2.950
  231DPPC   C2A 2766   1.351   3.419   3.250
  231DPPC   C3A 2767   1.344   3.479   3.550
  231DPPC   C4A 2768   1.346   3.398   3.850
  231DPPC   C1B 2769   1.100   3.632   2.950
  231DPPC   C2B 2770   1.079   3.595   3.250
  231DPPC   C3B 2771   1.069   3.636   3.550
  231DPPC   C4B 2772   1.146   3.627   3.850
  232DPPC   NC3 2773   5.039   3.363   2.050
  232DPPC   PO4 2774   4.978   3.362   2.350
  232DPPC   GL1 2775   5.043   3.368   2.650
  232DPPC   GL2 2776   5.028   3.467   2.650
  232DPPC   C1A 2777   5.027   3.384   2.950
  232DPPC   C2A 2778   5.022   3.388   3.250
  232DPPC   C3A 2779   5.034   3.436   3.550
  232DPPC   C4A 2780   5.049   3.361   3.850
  232DPPC   C1B 2781   5.064   3.603   2.950
  232DPPC   C2B 2782   5.126   3.611   3.250
  232DPPC   C3B 2783   5.143   3.583   3.550
  232DPPC   C4B 2784   5.087   3.598   3.850
  233DPPC   NC3 2785   5.783   8.975   2.050
  233DPPC   PO4 2786   5.759   9.020   2.350
  233DPPC   GL1 2787   5.748   9.020   2.650
  233DPPC   GL2 2788   5.859   8.878   2.650
  233DPPC   C1A 2789   5.769   9.065   2.950
  233DPPC   C2A 2790   5.781   9.064   3.250
  233DPPC   C3A 2791   5.822   9.009   3.550
  233DPPC   C4A 2792   5.778   8.982   3.850
  233DPPC   C1B 2793   5.887   8.731   2.950
  233DPPC   C2B 2794   5.874   8.780   3.250
  233DPPC   C3B 2795   5.904   8.751   3.550
  233DPPC   C4B 2796   5.851   8.792   3.850
  234DPPC   NC3 2797   7.459   8.846   2.050
  234DPPC   PO4 2798   7.476   8.830   2.350
  234DPPC   GL1 2799   7.442   8.757   2.650
  234DPPC   GL2 2800   7.374   8.864   2.650
  234DPPC   C1A 2801   7.464   8.812   2.950
  234DPPC   C2A 2802   7.449   8.837   3.250
  234DPPC   C3A 2803   7.411   8.811   3.550
  234DPPC   C4A 2804   7.445   8.768   3.850
  234DPPC   C1B 2805   7.298   8.989   2.950
  234DPPC   C2B 2806   7.294   9.013   3.250
  234DPPC   C3B 2807   7.257   8.990   3.550
  234DPPC   C4B 2808   7.275   8.960   3.850
  235DPPC   NC3 2809   3.593   2.629   2.050
  235DPPC   PO4 2810   3.570   2.596   2.350
  235DPPC   GL1 2811   3.568   2.628   2.650
  235DPPC   GL2 2812   3.464   2.705   2.650
  235DPPC   C1A 2813   3.604   2.683   2.950
  235DPPC   C2A 2814   3.555   2.669   3.250
  235DPPC   C3A 2815   3.569   2.681   3.550
  235DPPC   C4A 2816   3.538   2.614   3.850
  235DPPC   C1B 2817   3.396   2.892   2.950
  235DPPC   C2B 2818   3.451   2.820   3.250
  235DPPC   C3B 2819   3.415   2.799   3.550
  235DPPC   C4B 2820   3.424   2.881   3.850
  236DPPC   NC3 2821   7.406   0.562   2.050
  236DPPC   PO4 2822   7.419   0.508   2.350
  236DPPC   GL1 2823   7.418   0.598   2.650
  236DPPC   GL2 2824   7.363   0.412   2.650
  236DPPC   C1A 2825   7.339   0.524   2.950
  236DPPC   C2A 2826   7.354   0.569   3.250
  236DPPC   C3A 2827   7.387   0.583   3.550
  236DPPC   C4A 2828   7.417   0.604   3.850
  236DPPC   C1B 2829   7.350   0.339   2.950
  236DPPC   C2B 2830   7.347   0.265   3.250
  236DPPC   C3B 2831   7.293   0.329   3.550
  236DPPC   C4B 2832   7.306   0.335   3.850
  237DPPC   NC3 2833   8.983   8.871   2.050
  237DPPC   PO4 2834   9.027   8.885   2.350
  237DPPC   GL1 2835   8.971   8.873   2.650
  237DPPC   GL2 2836   8.920   8.881   2.650
  237DPPC   C1A 2837   8.977   8.895   2.950
  237DPPC   C2A 2838   9.033   8.899   3.250
  237DPPC   C3A 2839   9.013   8.861   3.550
  237DPPC   C4A 2840   9.049   8.879   3.850
  237DPPC   C1B 2841   8.771   8.889   2.950
  237DPPC   C2B 2842   8.823   8.955   3.250
  237DPPC   C3B 2843   8.805   8.947   3.550
  237DPPC   C4B 2844   8.784   8.880   3.850
  238DPPC   NC3 2845   0.428   2.621   2.050
  238DPPC   PO4 2846   0.382   2.574   2.350
  238DPPC   GL1 2847   0.433   2.628   2.650
  238DPPC   GL2 2848   0.411   2.724   2.650
  238DPPC   C1A 2849   0.407   2.635   2.950
  238DPPC   C2A 2850   0.475   2.614   3.250
  238DPPC   C3A 2851   0.442   2.621   3.550
  238DPPC   C4A 2852   0.456   2.578   3.850
  238DPPC   C1B 2853   0.408   2.877   2.950
  238DPPC   C2B 2854   0.452   2.898   3.250
  238DPPC   C3B 2855   0.483   2.884   3.550
  238DPPC   C4B 2856   0.434   2.912   3.850
  239DPPC   NC3 2857   7.242   8.141   2.050
  239DPPC   PO4 2858   7.246   8.126   2.350
  239DPPC   GL1 2859   7.284   8.126   2.650
  239DPPC   GL2 2860   7.312   8.099   2.650
  239DPPC   C1A 2861   7.274   8.137   2.950
  239DPPC   C2A 2862   7.203   8.192   3.250
  239DPPC   C3A 2863   7.268   8.167   3.550
  239DPPC   C4A 2864   7.249   8.158   3.850
  239DPPC   C1B 2865   7.427   8.082   2.950
  239DPPC   C2B 2866   7.469   8.131   3.250
  239DPPC   C3B 2867   7.522   8.093   3.550
  239DPPC   C4B 2868   7.492   8.136   3.850
  240DPPC   NC3 2869   8.808   7.421   2.050
  240DPPC   PO4 2870   8.753   7.335   2.350
  240DPPC   GL1 2871   8.788   7.404   2.650
  240DPPC   GL2 2872   8.901   7.383   2.650
  240DPPC   C1A 2873   8.815   7.349   2.950
  240DPPC   C2A 2874   8.764   7.390   3.250
  240DPPC   C3A 2875   8.744   7.373   3.550
  240DPPC   C4A 2876   8.809   7.353   3.850
  240DPPC   C1B 2877   9.017   7.379   2.950
  240DPPC   C2B 2878   9.029   7.379   3.250
  240DPPC   C3B 2879   9.031   7.318   3.550
  240DPPC   C4B 2880   8.972   7.312   3.850
  241DPPC   NC3 2881   2.737   6.487   2.050
  241DPPC   PO4 2882   2.698   6.454   2.350
  241DPPC   GL1 2883   2.660   6.508   2.650
  241DPPC   GL2 2884   2.714   6.549   2.650
  241DPPC   C1A 2885   2.686   6.427   2.950
  241DPPC   C2A 2886   2.722   6.430   3.250
  241DPPC   C3A 2887   2.712   6.470   3.550
  241DPPC   C4A 2888   2.682   6.461   3.850
  241DPPC   C1B 2889   2.793   6.747   2.950
  241DPPC   C2B 2890   2.811   6.735   3.250
  241DPPC   C3B 2891   2.793   6.746   3.550
  241DPPC   C4B 2892   2.764   6.664   3.850
  242DPPC   NC3 2893   2.780   1.853   2.050
  242DPPC   PO4 2894   2.794   1.826   2.350
  242DPPC   GL1 2895   2.751   1.866   2.650
  242DPPC   GL2 2896   2.755   1.975   2.650
  242DPPC   C1A 2897   2.760   1.842   2.950
  242DPPC   C2A 2898   2.803   1.828   3.250
  242DPPC   C3A 2899   2.797   1.812   3.550
  242DPPC   C4A 2900   2.795   1.874   3.850
  242DPPC   C1B 2901   2.696   2.048   2.950
  242DPPC   C2B 2902   2.690   2.119   3.250
  242DPPC   C3B 2903   2.712   2.115   3.550
  242DPPC   C4B 2904   2.682   2.124   3.850
  243DPPC   NC3 2905   8.063   7.489   2.050
  243DPPC   PO4 2906   8.034   7.504   2.350
  243DPPC   GL1 2907   8.021   7.424   2.650
  243DPPC   GL2 2908   8.099   7.398   2.650
  243DPPC   C1A 2909   8.008   7.418   2.950
  243DPPC   C2A 2910   8.051   7.450   3.250
  243DPPC   C3A 2911   8.034   7.427   3.550
  243DPPC   C4A 2912   8.095   7.448   3.850
  243DPPC   C1B 2913   8.166   7.253   2.950
  243DPPC   C2B 2914   8.204   7.279   3.250
  243DPPC   C3B 2915   8.164   7.249   3.550
  243DPPC   C4B 2916   8.165   7.229   3.850
  244DPPC   NC3 2917   1.908   6.450   2.050
  244DPPC   PO4 2918   1.899   6.470   2.350
  244DPPC   GL1 2919   1.926   6.513   2.650
  244DPPC   GL2 2920   1.961   6.550   2.650
  244DPPC   C1A 2921   1.901   6.434   2.950
  244DPPC   C2A 2922   1.883   6.494   3.250
  244DPPC   C3A 2923   1.930   6.498   3.550
  244DPPC   C4A 2924   1.930   6.470   3.850
  244DPPC   C1B 2925   1.980   6.704   2.950
  244DPPC   C2B 2926   2.076   6.663   3.250
  244DPPC   C3B 2927   2.027   6.651   3.550
  244DPPC   C4B 2928   2.073   6.688   3.850
  245DPPC   NC3 2929   1.277   2.636   2.050
  245DPPC   PO4 2930   1.346   2.662   2.350
  245DPPC   GL1 2931   1.298   2.637   2.650
  245DPPC   GL2 2932   1.183   2.779   2.650
  245DPPC   C1A 2933   1.355   2.701   2.950
  245DPPC   C2A 2934   1.359   2.668   3.250
  245DPPC   C3A 2935   1.300   2.646   3.550
  245DPPC   C4A 2936   1.286   2.680   3.850
  245DPPC   C1B 2937   1.121   2.834   2.950
  245DPPC   C2B 2938   1.095   2.840   3.250
  245DPPC   C3B 2939   1.052   2.785   3.550
  245DPPC   C4B 2940   1.140   2.801   3.850
  246DPPC   NC3 2941   2.695   2.621   2.050
  246DPPC   PO4 2942   2.689   2.645   2.350
  246DPPC   GL1 2943   2.748   2.577   2.650
  246DPPC   GL2 2944   2.718   2.771   2.650
  246DPPC   C1A 2945   2.694   2.663   2.950
  246DPPC   C2A 2946   2.716   2.668   3.250
  246DPPC   C3A 2947   2.760   2.638   3.550
  246DPPC   C4A 2948   2.733   2.604   3.850
  246DPPC   C1B 2949   2.714   2.841   2.950
  246DPPC   C2B 2950   2.714   2.860   3.250
  246DPPC   C3B 2951   2.754   2.853   3.550
  246DPPC   C4B 2952   2.786   2.877   3.850
  247DPPC   NC3 2953   5.866   5.757   2.050
  247DPPC   PO4 2954   5.910   5.736   2.350
  247DPPC   GL1 2955   5.904   5.663   2.650
  247DPPC   GL2 2956   5.856   5.801   2.650
  247DPPC   C1A 2957   5.872   5.663   2.950
  247DPPC   C2A 2958   5.901   5.699   3.250
  247DPPC   C3A 2959   5.892   5.713   3.550
  247DPPC   C4A 2960   5.884   5.691   3.850
  247DPPC   C1B 2961   5.770   5.887   2.950
  247DPPC   C2B 2962   5.747   5.945   3.250
  247DPPC   C3B 2963   5.783   5.922   3.550
  247DPPC   C4B 2964   5.805   5.908   3.850
  248DPPC   NC3 2965   6.422   8.157   2.050
  248DPPC   PO4 2966   6.518   8.194   2.350
  248DPPC   GL1 2967   6.496   8.194   2.650
  248DPPC   GL2 2968   6.626   8.089   2.650
  248DPPC   C1A 2969   6.438   8.125   2.950
  248DPPC   C2A 2970   6.499   8.139   3.250
  248DPPC   C3A 2971   6.430   8.176   3.550
  248DPPC   C4A 2972   6.452   8.172   3.850
  248DPPC   C1B 2973   6.667   8.098   2.950
  248DPPC   C2B 2974   6.700   8.081   3.250
  248DPPC   C3B 2975   6.743   8.080   3.550
  248DPPC   C4B 2976   6.688   8.128   3.850
  249DPPC   NC3 2977   9.506   2.684   2.050
  249DPPC   PO4 2978   9.558   2.773   2.350
  249DPPC   GL1 2979   9.535   2.730   2.650
  249DPPC   GL2 2980   9.711   2.757   2.650
  249DPPC   C1A 2981   9.493   2.760   2.950
  249DPPC   C2A 2982   9.498   2.698   3.250
  249DPPC   C3A 2983   9.564   2.760   3.550
  249DPPC   C4A 2984   9.565   2.768   3.850
  249DPPC   C1B 2985   9.823   2.746   2.950
  249DPPC   C2B 2986   9.830   2.800   3.250
  249DPPC   C3B 2987   9.779   2.713   3.550
  249DPPC   C4B 2988   9.837   2.722   3.850
  250DPPC   NC3 2989   6.754   6.553   2.050
  250DPPC   PO4 2990   6.729   6.602   2.350
  250DPPC   GL1 2991   6.763   6.582   2.650
  250DPPC   GL2 2992   6.582   6.567   2.650
  250DPPC   C1A 2993   6.743   6.573   2.950
  250DPPC   C2A 2994   6.733   6.632   3.250
  250DPPC   C3A 2995   6.733   6.613   3.550
  250DPPC   C4A 2996   6.728   6.622   3.850
  250DPPC   C1B 2997   6.474   6.588   2.950
  250DPPC   C2B 2998   6.475   6.531   3.250
  250DPPC   C3B 2999   6.426   6.591   3.550
  250DPPC   C4B 3000   6.456   6.555   3.850
  251DPPC   NC3 3001   8.039   8.025   2.050
  251DPPC   PO4 3002   8.059   8.042   2.350
  251DPPC   GL1 3003   8.059   8.051   2.650
  251DPPC   GL2 3004   8.142   8.090   2.650
  251DPPC   C1A 3005   7.974   8.028   2.950
  251DPPC   C2A 3006   8.063   8.039   3.250
  251DPPC   C3A 3007   8.066   8.012   3.550
  251DPPC   C4A 3008   8.028   8.012   3.850
  251DPPC   C1B 3009   8.212   8.195   2.950
  251DPPC   C2B 3010   8.193   8.205   3.250
  251DPPC   C3B 3011   8.262   8.218   3.550
  251DPPC   C4B 3012   8.260   8.220   3.850
  252DPPC   NC3 3013   8.859   4.171   2.050
  252DPPC   PO4 3014   8.853   4.126   2.350
  252DPPC   GL1 3015   8.866   4.151   2.650
  252DPPC   GL2 3016   8.869   4.297   2.650
  252DPPC   C1A 3017   8.923   4.185   2.950
  252DPPC   C2A 3018   8.901   4.185   3.250
  252DPPC   C3A 3019   8.895   4.131   3.550
  252DPPC   C4A 3020   8.898   4.198   3.850
  252DPPC   C1B 3021   8.856   4.389   2.950
  252DPPC   C2B 3022   8.939   4.364   3.250
  252DPPC   C3B 3023   8.925   4.394   3.550
  252DPPC   C4B 3024   8.884   4.401   3.850
  253DPPC   NC3 3025   5.735   9.659   2.050
  253DPPC   PO4 3026   5.670   9.655   2.350
  253DPPC   GL1 3027   5.696   9.602   2.650
  253DPPC   GL2 3028   5.771   9.637   2.650
  253DPPC   C1A 3029   5.671   9.660   2.950
  253DPPC   C2A 3030   5.663   9.628   3.250
  253DPPC   C3A 3031   5.682   9.615   3.550
  253DPPC   C4A 3032   5.693   9.649   3.850
  253DPPC   C1B 3033   5.961   9.746   2.950
  253DPPC   C2B 3034   5.905   9.723   3.250
  253DPPC   C3B 3035   5.909   9.695   3.550
  253DPPC   C4B 3036   5.953   9.740   3.850
  254DPPC   NC3 3037   7.473   4.993   2.050
  254DPPC   PO4 3038   7.524   4.975   2.350
  254DPPC   GL1 3039   7.522   5.013   2.650
  254DPPC   GL2 3040   7.372   5.077   2.650
  254DPPC   C1A 3041   7.448   5.047   2.950
  254DPPC   C2A 3042   7.450   5.036   3.250
  254DPPC   C3A 3043   7.476   5.026   3.550
  254DPPC   C4A 3044   7.454   4.986   3.850
  254DPPC   C1B 3045   7.224   5.109   2.950
  254DPPC   C2B 3046   7.242   5.097   3.250
  254DPPC   C3B 3047   7.261   5.076   3.550
  254DPPC   C4B 3048   7.286   5.039   3.850
  255DPPC   NC3 3049   0.476   4.436   2.050
  255DPPC   PO4 3050   0.470   4.362   2.350
  255DPPC   GL1 3051   0.505   4.374   2.650
  255DPPC   GL2 3052   0.452   4.321   2.650
  255DPPC   C1A 3053   0.469   4.345   2.950
  255DPPC   C2A 3054   0.461   4.344   3.250
  255DPPC   C3A 3055   0.473   4.360   3.550
  255DPPC   C4A 3056   0.490   4.366   3.850
  255DPPC   C1B 3057   0.383   4.173   2.950
  255DPPC   C2B 3058   0.381   4.167   3.250
  255DPPC   C3B 3059   0.382   4.128   3.550
  255DPPC   C4B 3060   0.397   4.138   3.850
  256DPPC   NC3 3061   0.609   7.395   2.050
  256DPPC   PO4 3062   0.542   7.328   2.350
  256DPPC   GL1 3063   0.553   7.399   2.650
  256DPPC   GL2 3064   0.418   7.328   2.650
  256DPPC   C1A 3065   0.580   7.369   2.950
  256DPPC   C2A 3066   0.514   7.404   3.250
  256DPPC   C3A 3067   0.599   7.395   3.550
  256DPPC   C4A 3068   0.576   7.393   3.850
  256DPPC   C1B 3069   0.275   7.340   2.950
  256DPPC   C2B 3070   0.324   7.346   3.250
  256DPPC   C3B 3071   0.332   7.358   3.550
  256DPPC   C4B 3072   0.272   7.363   3.850
  257DPPC   NC3 3073   1.821   5.056   2.050
  257DPPC   PO4 3074   1.898   5.102   2.350
  257DPPC   GL1 3075   1.848   5.095   2.650
  257DPPC   GL2 3076   1.997   5.064   2.650
  257DPPC   C1A 3077   1.845   5.082   2.950
  257DPPC   C2A 3078   1.822   5.038   3.250
  257DPPC   C3A 3079   1.852   5.083   3.550
  257DPPC   C4A 3080   1.881   5.059   3.850
  257DPPC   C1B 3081   2.075   4.983   2.950
  257DPPC   C2B 3082   2.095   5.054   3.250
  257DPPC   C3B 3083   2.091   5.039   3.550
  257DPPC   C4B 3084   2.121   4.982   3.850
  258DPPC   NC3 3085   4.321   8.797   2.050
  258DPPC   PO4 3086   4.267   8.812   2.350
  258DPPC   GL1 3087   4.309   8.818   2.650
  258DPPC   GL2 3088   4.262   8.906   2.650
  258DPPC   C1A 3089   4.276   8.760   2.950
  258DPPC   C2A 3090   4.264   8.771   3.250
  258DPPC   C3A 3091   4.262   8.731   3.550
  258DPPC   C4A 3092   4.322   8.798   3.850
  258DPPC   C1B 3093   4.277   9.000   2.950
  258DPPC   C2B 3094   4.285   8.983   3.250
  258DPPC   C3B 3095   4.277   9.009   3.550
  258DPPC   C4B 3096   4.233   9.024   3.850
  259DPPC   NC3 3097   9.768   8.963   2.050
  259DPPC   PO4 3098   9.757   8.982   2.350
  259DPPC   GL1 3099   9.720   8.964   2.650
  259DPPC   GL2 3100   9.622   8.859   2.650
  259DPPC   C1A 3101   9.759   8.979   2.950
  259DPPC   C2A 3102   9.785   8.983   3.250
  259DPPC   C3A 3103   9.742   8.932   3.550
  259DPPC   C4A 3104   9.783   9.024   3.850
  259DPPC   C1B 3105   9.581   8.788   2.950
  259DPPC   C2B 3106   9.538   8.775   3.250
  259DPPC   C3B 3107   9.559   8.807   3.550
  259DPPC   C4B 3108   9.555   8.830   3.850
  260DPPC   NC3 3109   2.039   9.575   2.050
  260DPPC   PO4 3110   2.083   9.654   2.350
  260DPPC   GL1 3111   2.071   9.591   2.650
  260DPPC   GL2 3112   1.964   9.622   2.650
  260DPPC   C1A 3113   2.037   9.577   2.950
  260DPPC   C2A 3114   2.077   9.642   3.250
  260DPPC   C3A 3115   2.125   9.639   3.550
  260DPPC   C4A 3116   2.097   9.657   3.850
  260DPPC   C1B 3117   1.902   9.733   2.950
  260DPPC   C2B 3118   1.892   9.709   3.250
  260DPPC   C3B 3119   1.850   9.708   3.550
  260DPPC   C4B 3120   1.838   9.702   3.850
  261DPPC   NC3 3121   6.522   9.793   2.050
  261DPPC   PO4 3122   6.472   9.755   2.350
  261DPPC   GL1 3123   6.497   9.724   2.650
  261DPPC   GL2 3124   6.633   9.663   2.650
  261DPPC   C1A 3125   6.498   9.800   2.950
  261DPPC   C2A 3126   6.502   9.749   3.250
  261DPPC   C3A 3127   6.493   9.799   3.550
  261DPPC   C4A 3128   6.515   9.792   3.850
  261DPPC   C1B 3129   6.715   9.566   2.950
  261DPPC   C2B 3130   6.626   9.574   3.250
  261DPPC   C3B 3131   6.709   9.562   3.550
  261DPPC   C4B 3132   6.686   9.530   3.850
  262DPPC   NC3 3133   5.763   6.728   2.050
  262DPPC   PO4 3134   5.785   6.667   2.350
  262DPPC   GL1 3135   5.744   6.746   2.650
  262DPPC   GL2 3136   5.803   6.545   2.650
  262DPPC   C1A 3137   5.827   6.726   2.950
  262DPPC   C2A 3138   5.831   6.734   3.250
  262DPPC   C3A 3139   5.837   6.737   3.550
  262DPPC   C4A 3140   5.796   6.663   3.850
  262DPPC   C1B 3141   5.833   6.496   2.950
  262DPPC   C2B 3142   5.875   6.443   3.250
  262DPPC   C3B 3143   5.827   6.438   3.550
  262DPPC   C4B 3144   5.832   6.513   3.850
  263DPPC   NC3 3145   1.371   4.277   2.050
  263DPPC   PO4 3146   1.286   4.216   2.350
  263DPPC   GL1 3147   1.371   4.286   2.650
  263DPPC   GL2 3148   1.244   4.247   2.650
  263DPPC   C1A 3149   1.352   4.267   2.950
  263DPPC   C2A 3150   1.296   4.265   3.250
  263DPPC   C3A 3151   1.333   4.292   3.550
  263DPPC   C4A 3152   1.366   4.222   3.850
  263DPPC   C1B 3153   1.100   4.291   2.950
  263DPPC   C2B 3154   1.074   4.272   3.250
  263DPPC   C3B 3155   1.096   4.303   3.550
  263DPPC   C4B 3156   1.102   4.336   3.850
  264DPPC   NC3 3157   9.492   3.452   2.050
  264DPPC   PO4 3158   9.583   3.546   2.350
  264DPPC   GL1 3159   9.542   3.507   2.650
  264DPPC   GL2 3160   9.693   3.473   2.650
  264DPPC   C1A 3161   9.522   3.538   2.950
  264DPPC   C2A 3162   9.538   3.508   3.250
  264DPPC   C3A 3163   9.559   3.478   3.550
  264DPPC   C4A 3164   9.547   3.477   3.850
  264DPPC   C1B 3165   9.779   3.483   2.950
  264DPPC   C2B 3166   9.757   3.572   3.250
  264DPPC   C3B 3167   9.744   3.552   3.550
  264DPPC   C4B 3168   9.807   3.484   3.850
  265DPPC   NC3 3169   1.106   8.851   2.050
  265DPPC   PO4 3170   1.083   8.928   2.350
  265DPPC   GL1 3171   1.046   8.931   2.650
  265DPPC   GL2 3172   1.176   8.876   2.650
  265DPPC   C1A 3173   1.044   8.848   2.950
  265DPPC   C2A 3174   1.038   8.877   3.250
  265DPPC   C3A 3175   1.104   8.848   3.550
  265DPPC   C4A 3176   1.060   8.912   3.850
  265DPPC   C1B 3177   1.367   8.944   2.950
  265DPPC   C2B 3178   1.305   8.931   3.250
  265DPPC   C3B 3179   1.289   8.856   3.550
  265DPPC   C4B 3180   1.359   8.936   3.850
  266DPPC   NC3 3181   2.808   0.341   2.050
  266DPPC   PO4 3182   2.832   0.339   2.350
  266DPPC   GL1 3183   2.884   0.343   2.650
  266DPPC   GL2 3184   2.790   0.455   2.650
  266DPPC   C1A 3185   2.857   0.388   2.950
  266DPPC   C2A 3186   2.793   0.327   3.250
  266DPPC   C3A 3187   2.815   0.405   3.550
  266DPPC   C4A 3188   2.885   0.380   3.850
  266DPPC   C1B 3189   2.617   0.482   2.950
  266DPPC   C2B 3190   2.636   0.476   3.250
  266DPPC   C3B 3191   2.602   0.521   3.550
  266DPPC   C4B 3192   2.653   0.514   3.850
  267DPPC   NC3 3193   5.925   2.066   2.050
  267DPPC   PO4 3194   5.937   2.059   2.350
  267DPPC   GL1 3195   5.891   2.033   2.650
  267DPPC   GL2 3196   5.832   1.939   2.650
  267DPPC   C1A 3197   5.968   2.085   2.950
  267DPPC   C2A 3198   5.941   2.028   3.250
  267DPPC   C3A 3199   5.885   2.083   3.550
  267DPPC   C4A 3200   5.911   1.996   3.850
  267DPPC   C1B 3201   5.711   1.952   2.950
  267DPPC   C2B 3202   5.686   1.946   3.250
  267DPPC   C3B 3203   5.724   1.878   3.550
  267DPPC   C4B 3204   5.722   1.931   3.850
  268DPPC   NC3 3205   5.125   2.848   2.050
  268DPPC   PO4 3206   5.132   2.856   2.350
  268DPPC   GL1 3207   5.136   2.809   2.650
  268DPPC   GL2 3208   5.078   2.774   2.650
  268DPPC   C1A 3209   5.098   2.797   2.950
  268DPPC   C2A 3210   5.071   2.896   3.250
  268DPPC   C3A 3211   5.070   2.841   3.550
  268DPPC   C4A 3212   5.093   2.798   3.850
  268DPPC   C1B 3213   4.988   2.665   2.950
  268DPPC   C2B 3214   5.021   2.628   3.250
  268DPPC   C3B 3215   5.028   2.659   3.550
  268DPPC   C4B 3216   4.962   2.644   3.850
  269DPPC   NC3 3217   3.458   7.986   2.050
  269DPPC   PO4 3218   3.468   7.979   2.350
  269DPPC   GL1 3219   3.400   8.050   2.650
  269DPPC   GL2 3220   3.549   8.150   2.650
  269DPPC   C1A 3221   3.395   8.070   2.950
  269DPPC   C2A 3222   3.400   8.059   3.250
  269DPPC   C3A 3223   3.393   8.050   3.550
  269DPPC   C4A 3224   3.453   8.039   3.850
  269DPPC   C1B 3225   3.573   8.217   2.950
  269DPPC   C2B 3226   3.575   8.184   3.250
  269DPPC   C3B 3227   3.624   8.264   3.550
  269DPPC   C4B 3228   3.582   8.242   3.850
  270DPPC   NC3 3229   7.504   4.354   2.050
  270DPPC   PO4 3230   7.418   4.329   2.350
  270DPPC   GL1 3231   7.442   4.333   2.650
  270DPPC   GL2 3232   7.370   4.259   2.650
  270DPPC   C1A 3233   7.507   4.357   2.950
  270DPPC   C2A 3234   7.475   4.326   3.250
  270DPPC   C3A 3235   7.441   4.311   3.550
  270DPPC   C4A 3236   7.468   4.351   3.850
  270DPPC   C1B 3237   7.255   4.227   2.950
  270DPPC   C2B 3238   7.211   4.238   3.250
  270DPPC   C3B 3239   7.205   4.185   3.550
  270DPPC   C4B 3240   7.232   4.249   3.850
  271DPPC   NC3 3241   4.174   1.057   2.050
  271DPPC   PO4 3242   4.228   1.067   2.350
  271DPPC   GL1 3243   4.258   1.050   2.650
  271DPPC   GL2 3244   4.250   1.241   2.650
  271DPPC   C1A 3245   4.205   1.121   2.950
  271DPPC   C2A 3246   4.221   1.094   3.250
  271DPPC   C3A 3247   4.265   1.113   3.550
  271DPPC   C4A 3248   4.259   1.136   3.850
  271DPPC   C1B 3249   4.392   1.323   2.950
  271DPPC   C2B 3250   4.338   1.317   3.250
  271DPPC   C3B 3251   4.310   1.274   3.550
  271DPPC   C4B 3252   4.392   1.286   3.850
  272DPPC   NC3 3253   5.882   3.436   2.050
  272DPPC   PO4 3254   5.909   3.378   2.350
  272DPPC   GL1 3255   5.879   3.367   2.650
  272DPPC   GL2 3256   5.797   3.538   2.650
  272DPPC   C1A 3257   5.890   3.408   2.950
  272DPPC   C2A 3258   5.842   3.399   3.250
  272DPPC   C3A 3259   5.857   3.362   3.550
  272DPPC   C4A 3260   5.909   3.381   3.850
  272DPPC   C1B 3261   5.793   3.601   2.950
  272DPPC   C2B 3262   5.774   3.666   3.250
  272DPPC   C3B 3263   5.728   3.646   3.550
  272DPPC   C4B 3264   5.810   3.618   3.850
  273DPPC   NC3 3265   4.351   8.259   2.050
  273DPPC   PO4 3266   4.400   8.197   2.350
  273DPPC   GL1 3267   4.351   8.214   2.650
  273DPPC   GL2 3268   4.265   8.097   2.650
  273DPPC   C1A 3269   4.331   8.223   2.950
  273DPPC   C2A 3270   4.373   8.274   3.250
  273DPPC   C3A 3271   4.324   8.231   3.550
  273DPPC   C4A 3272   4.379   8.240   3.850
  273DPPC   C1B 3273   4.236   8.045   2.950
  273DPPC   C2B 3274   4.157   8.073   3.250
  273DPPC   C3B 3275   4.178   8.037   3.550
  273DPPC   C4B 3276   4.223   8.030   3.850
  274DPPC   NC3 3277   2.603   8.770   2.050
  274DPPC   PO4 3278   2.605   8.831   2.350
  274DPPC   GL1 3279   2.599   8.783   2.650
  274DPPC   GL2 3280   2.764   8.906   2.650
  274DPPC   C1A 3281   2.638   8.789   2.950
  274DPPC   C2A 3282   2.669   8.805   3.250
  274DPPC   C3A 3283   2.609   8.803   3.550
  274DPPC   C4A 3284   2.646   8.795   3.850
  274DPPC   C1B 3285   2.861   8.974   2.950
  274DPPC   C2B 3286   2.812   9.012   3.250
  274DPPC   C3B 3287   2.863   8.977   3.550
  274DPPC   C4B 3288   2.820   8.963   3.850
  275DPPC   NC3 3289   8.022   1.898   2.050
  275DPPC   PO4 3290   8.053   1.910   2.350
  275DPPC   GL1 3291   7.997   1.930   2.650
  275DPPC   GL2 3292   8.157   1.939   2.650
  275DPPC   C1A 3293   8.033   1.837   2.950
  275DPPC   C2A 3294   7.999   1.927   3.250
  275DPPC   C3A 3295   8.054   1.880   3.550
  275DPPC   C4A 3296   8.037   1.931   3.850
  275DPPC   C1B 3297   8.235   2.093   2.950
  275DPPC   C2B 3298   8.252   2.035   3.250
  275DPPC   C3B 3299   8.246   2.028   3.550
  275DPPC   C4B 3300   8.188   2.097   3.850
  276DPPC   NC3 3301   2.649   5.015   2.050
  276DPPC   PO4 3302   2.698   4.940   2.350
  276DPPC   GL1 3303   2.687   4.966   2.650
  276DPPC   GL2 3304   2.765   5.099   2.650
  276DPPC   C1A 3305   2.647   4.963   2.950
  276DPPC   C2A 3306   2.613   4.950   3.250
  276DPPC   C3A 3307   2.619   4.927   3.550
  276DPPC   C4A 3308   2.647   4.981   3.850
  276DPPC   C1B 3309   2.860   5.143   2.950
  276DPPC   C2B 3310   2.849   5.107   3.250
  276DPPC   C3B 3311   2.880   5.095   3.550
  276DPPC   C4B 3312   2.862   5.137   3.850
  277DPPC   NC3 3313   9.719   5.206   2.050
  277DPPC   PO4 3314   9.657   5.181   2.350
  277DPPC   GL1 3315   9.670   5.140   2.650
  277DPPC   GL2 3316   9.687   5.029   2.650
  277DPPC   C1A 3317   9.735   5.214   2.950
  277DPPC   C2A 3318   9.706   5.160   3.250
  277DPPC   C3A 3319   9.718   5.211   3.550
  277DPPC   C4A 3320   9.677   5.214   3.850
  277DPPC   C1B 3321   9.599   4.936   2.950
  277DPPC   C2B 3322   9.679   4.952   3.250
  277DPPC   C3B 3323   9.601   4.899   3.550
  277DPPC   C4B 3324   9.690   4.895   3.850
  278DPPC   NC3 3325   4.208   5.916   2.050
  278DPPC   PO4 3326   4.161   5.891   2.350
  278DPPC   GL1 3327   4.155   5.846   2.650
  278DPPC   GL2 3328   4.311   5.809   2.650
  278DPPC   C1A 3329   4.152   5.939   2.950
  278DPPC   C2A 3330   4.217   5.932   3.250
  278DPPC   C3A 3331   4.138   5.897   3.550
  278DPPC   C4A 3332   4.214   5.919   3.850
  278DPPC   C1B 3333   4.403   5.787   2.950
  278DPPC   C2B 3334   4.351   5.734   3.250
  278DPPC   C3B 3335   4.407   5.705   3.550
  278DPPC   C4B 3336   4.408   5.772   3.850
  279DPPC   NC3 3337   2.111   8.126   2.050
  279DPPC   PO4 3338   2.066   8.139   2.350
  279DPPC   GL1 3339   2.126   8.153   2.650
  279DPPC   GL2 3340   2.013   8.078   2.650
  279DPPC   C1A 3341   2.081   8.119   2.950
  279DPPC   C2A 3342   2.123   8.103   3.250
  279DPPC   C3A 3343   2.078   8.125   3.550
  279DPPC   C4A 3344   2.129   8.164   3.850
  279DPPC   C1B 3345   1.897   8.091   2.950
  279DPPC   C2B 3346   1.839   8.143   3.250
  279DPPC   C3B 3347   1.850   8.137   3.550
  279DPPC   C4B 3348   1.834   8.124   3.850
  280DPPC   NC3 3349   3.657   4.308   2.050
  280DPPC   PO4 3350   3.655   4.271   2.350
  280DPPC   GL1 3351   3.597   4.228   2.650
  280DPPC   GL2 3352   3.561   4.286   2.650
  280DPPC   C1A 3353   3.648   4.306   2.950
  280DPPC   C2A 3354   3.648   4.240   3.250
  280DPPC   C3A 3355   3.589   4.313   3.550
  280DPPC   C4A 3356   3.598   4.298   3.850
  280DPPC   C1B 3357   3.419   4.319   2.950
  280DPPC   C2B 3358   3.399   4.248   3.250
  280DPPC   C3B 3359   3.401   4.255   3.550
  280DPPC   C4B 3360   3.364   4.319   3.850
  281DPPC   NC3 3361   9.805   9.585   2.050
  281DPPC   PO4 3362   9.743   9.615   2.350
  281DPPC   GL1 3363   9.741   9.585   2.650
  281DPPC   GL2 3364   9.662   9.637   2.650
  281DPPC   C1A 3365   9.757   9.680   2.950
  281DPPC   C2A 3366   9.764   9.629   3.250
  281DPPC   C3A 3367   9.783   9.587   3.550
  281DPPC   C4A 3368   9.793   9.670   3.850
  281DPPC   C1B 3369   9.583   9.683   2.950
  281DPPC   C2B 3370   9.587   9.739   3.250
  281DPPC   C3B 3371   9.501   9.654   3.550
  281DPPC   C4B 3372   9.589   9.661   3.850
  282DPPC   NC3 3373   6.481   2.042   2.050
  282DPPC   PO4 3374   6.468   1.992   2.350
  282DPPC   GL1 3375   6.464   2.061   2.650
  282DPPC   GL2 3376   6.608   1.972   2.650
  282DPPC   C1A 3377   6.510   2.059   2.950
  282DPPC   C2A 3378   6.483   2.049   3.250
  282DPPC   C3A 3379   6.449   2.074   3.550
  282DPPC   C4A 3380   6.448   2.071   3.850
  282DPPC   C1B 3381   6.698   1.895   2.950
  282DPPC   C2B 3382   6.731   1.929   3.250
  282DPPC   C3B 3383   6.710   1.880   3.550
  282DPPC   C4B 3384   6.654   1.866   3.850
  283DPPC   NC3 3385   4.281   3.395   2.050
  283DPPC   PO4 3386   4.306   3.407   2.350
  283DPPC   GL1 3387   4.327   3.421   2.650
  283DPPC   GL2 3388   4.303   3.479   2.650
  283DPPC   C1A 3389   4.338   3.377   2.950
  283DPPC   C2A 3390   4.329   3.356   3.250
  283DPPC   C3A 3391   4.341   3.421   3.550
  283DPPC   C4A 3392   4.331   3.362   3.850
  283DPPC   C1B 3393   4.224   3.682   2.950
  283DPPC   C2B 3394   4.295   3.671   3.250
  283DPPC   C3B 3395   4.226   3.621   3.550
  283DPPC   C4B 3396   4.279   3.666   3.850
  284DPPC   NC3 3397   8.852   6.477   2.050
  284DPPC   PO4 3398   8.843   6.526   2.350
  284DPPC   GL1 3399   8.785   6.493   2.650
  284DPPC   GL2 3400   8.902   6.579   2.650
  284DPPC   C1A 3401   8.784   6.510   2.950
  284DPPC   C2A 3402   8.793   6.462   3.250
  284DPPC   C3A 3403   8.789   6.508   3.550
  284DPPC   C4A 3404   8.772   6.519   3.850
  284DPPC   C1B 3405   8.955   6.706   2.950
  284DPPC   C2B 3406   8.954   6.717   3.250
  284DPPC   C3B 3407   8.944   6.713   3.550
  284DPPC   C4B 3408   8.975   6.682   3.850
  285DPPC   NC3 3409   4.254   0.557   2.050
  285DPPC   PO4 3410   4.341   0.534   2.350
  285DPPC   GL1 3411   4.267   0.552   2.650
  285DPPC   GL2 3412   4.298   0.425   2.650
  285DPPC   C1A 3413   4.271   0.604   2.950
  285DPPC   C2A 3414   4.255   0.529   3.250
  285DPPC   C3A 3415   4.338   0.605   3.550
  285DPPC   C4A 3416   4.267   0.586   3.850
  285DPPC   C1B 3417   4.305   0.337   2.950
  285DPPC   C2B 3418   4.245   0.280   3.250
  285DPPC   C3B 3419   4.221   0.318   3.550
  285DPPC   C4B 3420   4.236   0.321   3.850
  286DPPC   NC3 3421   9.721   7.189   2.050
  286DPPC   PO4 3422   9.660   7.246   2.350
  286DPPC   GL1 3423   9.697   7.209   2.650
  286DPPC   GL2 3424   9.680   7.335   2.650
  286DPPC   C1A 3425   9.628   7.230   2.950
  286DPPC   C2A 3426   9.712   7.246   3.250
  286DPPC   C3A 3427   9.707   7.282   3.550
  286DPPC   C4A 3428   9.704   7.209   3.850
  286DPPC   C1B 3429   9.660   7.480   2.950
  286DPPC   C2B 3430   9.672   7.461   3.250
  286DPPC   C3B 3431   9.630   7.447   3.550
  286DPPC   C4B 3432   9.615   7.450   3.850
  287DPPC   NC3 3433   4.388   7.232   2.050
  287DPPC   PO4 3434   4.367   7.256   2.350
  287DPPC   GL1 3435   4.391   7.254   2.650
  287DPPC   GL2 3436   4.271   7.407   2.650
  287DPPC   C1A 3437   4.326   7.234   2.950
  287DPPC   C2A 3438   4.363   7.290   3.250
  287DPPC   C3A 3439   4.349   7.286   3.550
  287DPPC   C4A 3440   4.349   7.258   3.850
  287DPPC   C1B 3441   4.144   7.397   2.950
  287DPPC   C2B 3442   4.153   7.482   3.250
  287DPPC   C3B 3443   4.192   7.424   3.550
  287DPPC   C4B 3444   4.180   7.460   3.850
  288DPPC   NC3 3445   2.877   4.388   2.050
  288DPPC   PO4 3446   2.846   4.359   2.350
  288DPPC   GL1 3447   2.899   4.346   2.650
  288DPPC   GL2 3448   2.739   4.285   2.650
  288DPPC   C1A 3449   2.813   4.352   2.950
  288DPPC   C2A 3450   2.820   4.390   3.250
  288DPPC   C3A 3451   2.880   4.346   3.550
  288DPPC   C4A 3452   2.827   4.321   3.850
  288DPPC   C1B 3453   2.657   4.207   2.950
  288DPPC   C2B 3454   2.640   4.247   3.250
  288DPPC   C3B 3455   2.591   4.236   3.550
  288DPPC   C4B 3456   2.595   4.210   3.850
  289DPPC   NC3 3457   0.399   1.298   2.050
  289DPPC   PO4 3458   0.488   1.375   2.350
  289DPPC   GL1 3459   0.418   1.304   2.650
  289DPPC   GL2 3460   0.478   1.220   2.650
  289DPPC   C1A 3461   0.467   1.353   2.950
  289DPPC   C2A 3462   0.496   1.297   3.250
  289DPPC   C3A 3463   0.473   1.312   3.550
  289DPPC   C4A 3464   0.423   1.360   3.850
  289DPPC   C1B 3465   0.415   1.062   2.950
  289DPPC   C2B 3466   0.397   1.044   3.250
  289DPPC   C3B 3467   0.468   1.054   3.550
  289DPPC   C4B 3468   0.457   1.045   3.850
  290DPPC   NC3 3469   1.976   2.090   2.050
  290DPPC   PO4 3470   2.022   2.102   2.350
  290DPPC   GL1 3471   1.959   2.077   2.650
  290DPPC   GL2 3472   1.984   2.004   2.650
  290DPPC   C1A 3473   1.938   2.082   2.950
  290DPPC   C2A 3474   1.943   2.083   3.250
  290DPPC   C3A 3475   2.025   2.070   3.550
  290DPPC   C4A 3476   1.996   2.077   3.850
  290DPPC   C1B 3477   1.988   1.845   2.950
  290DPPC   C2B 3478   1.998   1.799   3.250
  290DPPC   C3B 3479   1.952   1.882   3.550
  290DPPC   C4B 3480   1.979   1.873   3.850
  291DPPC   NC3 3481   0.290   0.409   2.050
  291DPPC   PO4 3482   0.279   0.340   2.350
  291DPPC   GL1 3483   0.314   0.410   2.650
  291DPPC   GL2 3484   0.468   0.387   2.650
  291DPPC   C1A 3485   0.294   0.373   2.950
  291DPPC   C2A 3486   0.373   0.338   3.250
  291DPPC   C3A 3487   0.354   0.412   3.550
  291DPPC   C4A 3488   0.359   0.368   3.850
  291DPPC   C1B 3489   0.501   0.513   2.950
  291DPPC   C2B 3490   0.566   0.445   3.250
  291DPPC   C3B 3491   0.498   0.447   3.550
  291DPPC   C4B 3492   0.520   0.472   3.850
  292DPPC   NC3 3493   5.149   0.301   2.050
  292DPPC   PO4 3494   5.093   0.293   2.350
  292DPPC   GL1 3495   5.147   0.392   2.650
  292DPPC   GL2 3496   5.059   0.417   2.650
  292DPPC   C1A 3497   5.185   0.385   2.950
  292DPPC   C2A 3498   5.162   0.312   3.250
  292DPPC   C3A 3499   5.128   0.298   3.550
  292DPPC   C4A 3500   5.138   0.390   3.850
  292DPPC   C1B 3501   4.986   0.563   2.950
  292DPPC   C2B 3502   4.999   0.500   3.250
  292DPPC   C3B 3503   4.917   0.517   3.550
  292DPPC   C4B 3504   5.007   0.557   3.850
  293DPPC   NC3 3505   1.320   7.309   2.050
  293DPPC   PO4 3506   1.333   7.231   2.350
  293DPPC   GL1 3507   1.287   7.232   2.650
  293DPPC   GL2 3508   1.176   7.380   2.650
  293DPPC   C1A 3509   1.274   7.301   2.950
  293DPPC   C2A 3510   1.273   7.219   3.250
  293DPPC   C3A 3511   1.290   7.308   3.550
  293DPPC   C4A 3512   1.266   7.310   3.850
  293DPPC   C1B 3513   1.083   7.499   2.950
  293DPPC   C2B 3514   1.153   7.457   3.250
  293DPPC   C3B 3515   1.159   7.426   3.550
  293DPPC   C4B 3516   1.125   7.452   3.850
  294DPPC   NC3 3517   4.405   6.555   2.050
  294DPPC   PO4 3518   4.438   6.622   2.350
  294DPPC   GL1 3519   4.437   6.632   2.650
  294DPPC   GL2 3520   4.245   6.545   2.650
  294DPPC   C1A 3521   4.368   6.564   2.950
  294DPPC   C2A 3522   4.413   6.604   3.250
  294DPPC   C3A 3523   4.358   6.602   3.550
  294DPPC   C4A 3524   4.436   6.585   3.850
  294DPPC   C1B 3525   4.116   6.545   2.950
  294DPPC   C2B 3526   4.172   6.622   3.250
  294DPPC   C3B 3527   4.193   6.542   3.550
  294DPPC   C4B 3528   4.141   6.555   3.850
  295DPPC   NC3 3529   9.645   5.991   2.050
  295DPPC   PO4 3530   9.712   5.981   2.350
  295DPPC   GL1 3531   9.662   5.938   2.650
  295DPPC   GL2 3532   9.657   5.774   2.650
  295DPPC   C1A 3533   9.664   5.987   2.950
  295DPPC   C2A 3534   9.701   5.967   3.250
  295DPPC   C3A 3535   9.699   5.988   3.550
  295DPPC   C4A 3536   9.646   5.946   3.850
  295DPPC   C1B 3537   9.626   5.661   2.950
  295DPPC   C2B 3538   9.649   5.695   3.250
  295DPPC   C3B 3539   9.638   5.705   3.550
  295DPPC   C4B 3540   9.614   5.700   3.850
  296DPPC   NC3 3541   6.745   4.270   2.050
  296DPPC   PO4 3542   6.692   4.275   2.350
  296DPPC   GL1 3543   6.670   4.308   2.650
  296DPPC   GL2 3544   6.586   4.263   2.650
  296DPPC   C1A 3545   6.723   4.311   2.950
  296DPPC   C2A 3546   6.672   4.283   3.250
  296DPPC   C3A 3547   6.690   4.340   3.550
  296DPPC   C4A 3548   6.717   4.332   3.850
  296DPPC   C1B 3549   6.512   4.277   2.950
  296DPPC   C2B 3550   6.425   4.265   3.250
  296DPPC   C3B 3551   6.463   4.284   3.550
  296DPPC   C4B 3552   6.444   4.203   3.850
  297DPPC   NC3 3553   0.285   6.519   2.050
  297DPPC   PO4 3554   0.346   6.510   2.350
  297DPPC   GL1 3555   0.377   6.547   2.650
  297DPPC   GL2 3556   0.402   6.633   2.650
  297DPPC   C1A 3557   0.381   6.548   2.950
  297DPPC   C2A 3558   0.325   6.511   3.250
  297DPPC   C3A 3559   0.308   6.562   3.550
  297DPPC   C4A 3560   0.354   6.499   3.850
  297DPPC   C1B 3561   0.542   6.660   2.950
  297DPPC   C2B 3562   0.535   6.703   3.250
  297DPPC   C3B 3563   0.583   6.675   3.550
  297DPPC   C4B 3564   0.549   6.684   3.850
  298DPPC   NC3 3565   3.433   5.737   2.050
  298DPPC   PO4 3566   3.419   5.694   2.350
  298DPPC   GL1 3567   3.419   5.743   2.650
  298DPPC   GL2 3568   3.533   5.822   2.650
  298DPPC   C1A 3569   3.423   5.750   2.950
  298DPPC   C2A 3570   3.421   5.727   3.250
  298DPPC   C3A 3571   3.413   5.698   3.550
  298DPPC   C4A 3572   3.464   5.715   3.850
  298DPPC   C1B 3573   3.616   5.933   2.950
  298DPPC   C2B 3574   3.579   5.908   3.250
  298DPPC   C3B 3575   3.532   5.896   3.550
  298DPPC   C4B 3576   3.527   5.890   3.850
  299DPPC   NC3 3577   6.641   7.423   2.050
  299DPPC   PO4 3578   6.636   7.480   2.350
  299DPPC   GL1 3579   6.653   7.444   2.650
  299DPPC   GL2 3580   6.633   7.368   2.650
  299DPPC   C1A 3581   6.682   7.482   2.950
  299DPPC   C2A 3582   6.676   7.489   3.250
  299DPPC   C3A 3583   6.604   7.426   3.550
  299DPPC   C4A 3584   6.658   7.424   3.850
  299DPPC   C1B 3585   6.585   7.201   2.950
  299DPPC   C2B 3586   6.493   7.254   3.250
  299DPPC   C3B 3587   6.526   7.253   3.550
  299DPPC   C4B 3588   6.577   7.221   3.850
  300DPPC   NC3 3589   5.107   9.746   2.050
  300DPPC   PO4 3590   5.163   9.783   2.350
  300DPPC   GL1 3591   5.123   9.706   2.650
  300DPPC   GL2 3592   5.008   9.682   2.650
  300DPPC   C1A 3593   5.131   9.780   2.950
  300DPPC   C2A 3594   5.113   9.711   3.250
  300DPPC   C3A 3595   5.143   9.729   3.550
  300DPPC   C4A 3596   5.113   9.700   3.850
  300DPPC   C1B 3597   4.903   9.556   2.950
  300DPPC   C2B 3598   4.952   9.550   3.250
  300DPPC   C3B 3599   4.985   9.568   3.550
  300DPPC   C4B 3600   4.995   9.572   3.850
  301DPPC   NC3 3601   2.066   4.204   2.050
  301DPPC   PO4 3602   2.055   4.220   2.350
  301DPPC   GL1 3603   2.029   4.194   2.650
  301DPPC   GL2 3604   1.980   4.316   2.650
  301DPPC   C1A 3605   2.014   4.154   2.950
  301DPPC   C2A 3606   2.021   4.194   3.250
  301DPPC   C3A 3607   2.082   4.231   3.550
  301DPPC   C4A 3608   2.072   4.187   3.850
  301DPPC   C1B 3609   1.884   4.374   2.950
  301DPPC   C2B 3610   1.894   4.347   3.250
  301DPPC   C3B 3611   1.915   4.360   3.550
  301DPPC   C4B 3612   1.919   4.393   3.850
  302DPPC   NC3 3613   6.574   4.898   2.050
  302DPPC   PO4 3614   6.565   4.949   2.350
  302DPPC   GL1 3615   6.508   4.939   2.650
  302DPPC   GL2 3616   6.543   5.096   2.650
  302DPPC   C1A 3617   6.576   4.931   2.950
  302DPPC   C2A 3618   6.545   4.899   3.250
  302DPPC   C3A 3619   6.492   4.954   3.550
  302DPPC   C4A 3620   6.577   4.892   3.850
  302DPPC   C1B 3621   6.672   5.168   2.950
  302DPPC   C2B 3622   6.625   5.188   3.250
  302DPPC   C3B 3623   6.641   5.171   3.550
  302DPPC   C4B 3624   6.605   5.162   3.850
  303DPPC   NC3 3625   3.340   8.902   2.050
  303DPPC   PO4 3626   3.347   8.925   2.350
  303DPPC   GL1 3627   3.374   8.880   2.650
  303DPPC   GL2 3628   3.496   8.914   2.650
  303DPPC   C1A 3629   3.401   8.941   2.950
  303DPPC   C2A 3630   3.396   8.906   3.250
  303DPPC   C3A 3631   3.428   8.945   3.550
  303DPPC   C4A 3632   3.379   8.891   3.850
  303DPPC   C1B 3633   3.676   8.827   2.950
  303DPPC   C2B 3634   3.602   8.876   3.250
  303DPPC   C3B 3635   3.632   8.907   3.550
  303DPPC   C4B 3636   3.587   8.902   3.850
  304DPPC   NC3 3637   5.028   5.716   2.050
  304DPPC   PO4 3638   4.953   5.678   2.350
  304DPPC   GL1 3639   4.945   5.696   2.650
  304DPPC   GL2 3640   5.014   5.815   2.650
  304DPPC   C1A 3641   4.959   5.683   2.950
  304DPPC   C2A 3642   5.007   5.673   3.250
  304DPPC   C3A 3643   4.996   5.669   3.550
  304DPPC   C4A 3644   4.968   5.719   3.850
  304DPPC   C1B 3645   5.169   5.969   2.950
  304DPPC   C2B 3646   5.075   5.964   3.250
  304DPPC   C3B 3647   5.107   5.952   3.550
  304DPPC   C4B 3648   5.128   5.971   3.850
  305DPPC   NC3 3649   2.017   9.055   2.050
  305DPPC   PO4 3650   2.059   8.987   2.350
  305DPPC   GL1 3651   2.041   8.980   2.650
  305DPPC   GL2 3652   1.971   8.863   2.650
  305DPPC   C1A 3653   2.052   8.976   2.950
  305DPPC   C2A 3654   2.003   9.038   3.250
  305DPPC   C3A 3655   1.985   9.031   3.550
  305DPPC   C4A 3656   2.019   8.967   3.850
  305DPPC   C1B 3657   1.941   8.799   2.950
  305DPPC   C2B 3658   1.965   8.830   3.250
  305DPPC   C3B 3659   1.884   8.834   3.550
  305DPPC   C4B 3660   1.904   8.794   3.850
  306DPPC   NC3 3661   0.521   9.813   2.050
  306DPPC   PO4 3662   0.493   9.741   2.350
  306DPPC   GL1 3663   0.505   9.784   2.650
  306DPPC   GL2 3664   0.408   9.659   2.650
  306DPPC   C1A 3665   0.491   9.746   2.950
  306DPPC   C2A 3666   0.529   9.812   3.250
  306DPPC   C3A 3667   0.479   9.774   3.550
  306DPPC   C4A 3668   0.533   9.755   3.850
  306DPPC   C1B 3669   0.393   9.599   2.950
  306DPPC   C2B 3670   0.364   9.573   3.250
  306DPPC   C3B 3671   0.407   9.549   3.550
  306DPPC   C4B 3672   0.348   9.536   3.850
  307DPPC   NC3 3673   3.447   7.392   2.050
  307DPPC   PO4 3674   3.441   7.409   2.350
  307DPPC   GL1 3675   3.431   7.431   2.650
  307DPPC   GL2 3676   3.497   7.310   2.650
  307DPPC   C1A 3677   3.431   7.478   2.950
  307DPPC   C2A 3678   3.444   7.470   3.250
  307DPPC   C3A 3679   3.380   7.416   3.550
  307DPPC   C4A 3680   3.442   7.406   3.850
  307DPPC   C1B 3681   3.633   7.281   2.950
  307DPPC   C2B 3682   3.570   7.305   3.250
  307DPPC   C3B 3683   3.641   7.335   3.550
  307DPPC   C4B 3684   3.631   7.267   3.850
  308DPPC   NC3 3685   8.125   5.143   2.050
  308DPPC   PO4 3686   8.091   5.170   2.350
  308DPPC   GL1 3687   8.161   5.217   2.650
  308DPPC   GL2 3688   8.119   5.053   2.650
  308DPPC   C1A 3689   8.100   5.131   2.950
  308DPPC   C2A 3690   8.125   5.201   3.250
  308DPPC   C3A 3691   8.120   5.197   3.550
  308DPPC   C4A 3692   8.150   5.162   3.850
  308DPPC   C1B 3693   8.110   4.910   2.950
  308DPPC   C2B 3694   8.087   4.884   3.250
  308DPPC   C3B 3695   8.077   4.917   3.550
  308DPPC   C4B 3696   8.116   4.970   3.850
  309DPPC   NC3 3697   4.424   2.638   2.050
  309DPPC   PO4 3698   4.353   2.659   2.350
  309DPPC   GL1 3699   4.392   2.637   2.650
  309DPPC   GL2 3700   4.328   2.694   2.650
  309DPPC   C1A 3701   4.380   2.718   2.950
  309DPPC   C2A 3702   4.338   2.682   3.250
  309DPPC   C3A 3703   4.393   2.716   3.550
  309DPPC   C4A 3704   4.348   2.647   3.850
  309DPPC   C1B 3705   4.197   2.806   2.950
  309DPPC   C2B 3706   4.221   2.791   3.250
  309DPPC   C3B 3707   4.188   2.843   3.550
  309DPPC   C4B 3708   4.199   2.805   3.850
  310DPPC   NC3 3709   9.656   8.026   2.050
  310DPPC   PO4 3710   9.643   8.033   2.350
  310DPPC   GL1 3711   9.653   8.032   2.650
  310DPPC   GL2 3712   9.670   8.155   2.650
  310DPPC   C1A 3713   9.580   7.977   2.950
  310DPPC   C2A 3714   9.631   8.028   3.250
  310DPPC   C3A 3715   9.572   7.965   3.550
  310DPPC   C4A 3716   9.632   8.052   3.850
  310DPPC   C1B 3717   9.710   8.193   2.950
  310DPPC   C2B 3718   9.708   8.216   3.250
  310DPPC   C3B 3719   9.724   8.269   3.550
  310DPPC   C4B 3720   9.692   8.199   3.850
  311DPPC   NC3 3721   4.950   4.197   2.050
  311DPPC   PO4 3722   4.940   4.211   2.350
  311DPPC   GL1 3723   4.954   4.255   2.650
  311DPPC   GL2 3724   5.041   4.325   2.650
  311DPPC   C1A 3725   4.972   4.229   2.950
  311DPPC   C2A 3726   4.926   4.253   3.250
  311DPPC   C3A 3727   4.882   4.286   3.550
  311DPPC   C4A 3728   4.914   4.231   3.850
  311DPPC   C1B 3729   5.154   4.283   2.950
  311DPPC   C2B 3730   5.164   4.366   3.250
  311DPPC   C3B 3731   5.171   4.333   3.550
  311DPPC   C4B 3732   5.127   4.297   3.850
  312DPPC   NC3 3733   8.769   0.499   2.050
  312DPPC   PO4 3734   8.805   0.533   2.350
  312DPPC   GL1 3735   8.832   0.537   2.650
  312DPPC   GL2 3736   8.923   0.437   2.650
  312DPPC   C1A 3737   8.834   0.522   2.950
  312DPPC   C2A 3738   8.763   0.531   3.250
  312DPPC   C3A 3739   8.787   0.494   3.550
  312DPPC   C4A 3740   8.756   0.511   3.850
  312DPPC   C1B 3741   8.966   0.377   2.950
  312DPPC   C2B 3742   9.011   0.403   3.250
  312DPPC   C3B 3743   8.970   0.390   3.550
  312DPPC   C4B 3744   9.049   0.328   3.850
  313DPPC   NC3 3745   8.753   5.109   2.050
  313DPPC   PO4 3746   8.758   5.107   2.350
  313DPPC   GL1 3747   8.787   5.095   2.650
  313DPPC   GL2 3748   8.945   5.023   2.650
  313DPPC   C1A 3749   8.753   5.108   2.950
  313DPPC   C2A 3750   8.805   5.056   3.250
  313DPPC   C3A 3751   8.735   5.121   3.550
  313DPPC   C4A 3752   8.828   5.062   3.850
  313DPPC   C1B 3753   9.011   5.003   2.950
  313DPPC   C2B 3754   9.006   5.014   3.250
  313DPPC   C3B 3755   9.023   5.043   3.550
  313DPPC   C4B 3756   9.057   5.048   3.850
  314DPPC   NC3 3757   8.978   2.860   2.050
  314DPPC   PO4 3758   9.000   2.859   2.350
  314DPPC   GL1 3759   9.031   2.844   2.650
  314DPPC   GL2 3760   8.909   2.714   2.650
  314DPPC   C1A 3761   8.955   2.774   2.950
  314DPPC   C2A 3762   8.977   2.847   3.250
  314DPPC   C3A 3763   8.987   2.804   3.550
  314DPPC   C4A 3764   9.018   2.866   3.850
  314DPPC   C1B 3765   8.832   2.640   2.950
  314DPPC   C2B 3766   8.767   2.629   3.250
  314DPPC   C3B 3767   8.840   2.670   3.550
  314DPPC   C4B 3768   8.773   2.621   3.850
  315DPPC   NC3 3769   7.293   2.670   2.050
  315DPPC   PO4 3770   7.240   2.671   2.350
  315DPPC   GL1 3771   7.278   2.684   2.650
  315DPPC   GL2 3772   7.312   2.782   2.650
  315DPPC   C1A 3773   7.250   2.679   2.950
  315DPPC   C2A 3774   7.285   2.605   3.250
  315DPPC   C3A 3775   7.255   2.668   3.550
  315DPPC   C4A 3776   7.304   2.691   3.850
  315DPPC   C1B 3777   7.427   2.834   2.950
  315DPPC   C2B 3778   7.455   2.839   3.250
  315DPPC   C3B 3779   7.433   2.828   3.550
  315DPPC   C4B 3780   7.441   2.800   3.850
  316DPPC   NC3 3781   8.810   3.447   2.050
  316DPPC   PO4 3782   8.779   3.365   2.350
  316DPPC   GL1 3783   8.861   3.408   2.650
  316DPPC   GL2 3784   8.938   3.499   2.650
  316DPPC   C1A 3785   8.858   3.454   2.950
  316DPPC   C2A 3786   8.777   3.415   3.250
  316DPPC   C3A 3787   8.813   3.364   3.550
  316DPPC   C4A 3788   8.831   3.402   3.850
  316DPPC   C1B 3789   8.986   3.659   2.950
  316DPPC   C2B 3790   8.950   3.588   3.250
  316DPPC   C3B 3791   8.984   3.653   3.550
  316DPPC   C4B 3792   8.993   3.566   3.850
  317DPPC   NC3 3793   7.377   7.210   2.050
  317DPPC   PO4 3794   7.329   7.234   2.350
  317DPPC   GL1 3795   7.303   7.253   2.650
  317DPPC   GL2 3796   7.325   7.399   2.650
  317DPPC   C1A 3797   7.368   7.202   2.950
  317DPPC   C2A 3798   7.345   7.256   3.250
  317DPPC   C3A 3799   7.357   7.272   3.550
  317DPPC   C4A 3800   7.318   7.283   3.850
  317DPPC   C1B 3801   7.387   7.506   2.950
  317DPPC   C2B 3802   7.381   7.465   3.250
  317DPPC   C3B 3803   7.329   7.464   3.550
  317DPPC   C4B 3804   7.394   7.463   3.850
  318DPPC   NC3 3805   3.460   0.371   2.050
  318DPPC   PO4 3806   3.447   0.351   2.350
  318DPPC   GL1 3807   3.416   0.375   2.650
  318DPPC   GL2 3808   3.517   0.467   2.650
  318DPPC   C1A 3809   3.460   0.315   2.950
  318DPPC   C2A 3810   3.372   0.358   3.250
  318DPPC   C3A 3811   3.451   0.356   3.550
  318DPPC   C4A 3812   3.436   0.327   3.850
  318DPPC   C1B 3813   3.594   0.492   2.950
  318DPPC   C2B 3814   3.651   0.526   3.250
  318DPPC   C3B 3815   3.599   0.514   3.550
  318DPPC   C4B 3816   3.563   0.506   3.850
  319DPPC   NC3 3817   5.874   7.240   2.050
  319DPPC   PO4 3818   5.842   7.250   2.350
  319DPPC   GL1 3819   5.788   7.253   2.650
  319DPPC   GL2 3820   5.797   7.327   2.650
  319DPPC   C1A 3821   5.855   7.212   2.950
  319DPPC   C2A 3822   5.854   7.281   3.250
  319DPPC   C3A 3823   5.793   7.249   3.550
  319DPPC   C4A 3824   5.860   7.191   3.850
  319DPPC   C1B 3825   5.792   7.499   2.950
  319DPPC   C2B 3826   5.819   7.520   3.250
  319DPPC   C3B 3827   5.760   7.524   3.550
  319DPPC   C4B 3828   5.787   7.441   3.850
  320DPPC   NC3 3829   3.474   2.137   2.050
  320DPPC   PO4 3830   3.453   2.081   2.350
  320DPPC   GL1 3831   3.483   2.105   2.650
  320DPPC   GL2 3832   3.534   1.981   2.650
  320DPPC   C1A 3833   3.421   2.067   2.950
  320DPPC   C2A 3834   3.417   2.058   3.250
  320DPPC   C3A 3835   3.452   2.081   3.550
  320DPPC   C4A 3836   3.506   2.050   3.850
  320DPPC   C1B 3837   3.546   1.822   2.950
  320DPPC   C2B 3838   3.575   1.864   3.250
  320DPPC   C3B 3839   3.537   1.905   3.550
  320DPPC   C4B 3840   3.539   1.860   3.850
  321DPPC   NC3 3841   7.242   1.259   2.050
  321DPPC   PO4 3842   7.190   1.248   2.350
  321DPPC   GL1 3843   7.241   1.189   2.650
  321DPPC   GL2 3844   7.371   1.166   2.650
  321DPPC   C1A 3845   7.252   1.225   2.950
  321DPPC   C2A 3846   7.266   1.194   3.250
  321DPPC   C3A 3847   7.211   1.211   3.550
  321DPPC   C4A 3848   7.252   1.194   3.850
  321DPPC   C1B 3849   7.478   1.230   2.950
  321DPPC   C2B 3850   7.482   1.225   3.250
  321DPPC   C3B 3851   7.472   1.184   3.550
  321DPPC   C4B 3852   7.444   1.204   3.850
  322DPPC   NC3 3853   0.331   2.000   2.050
  322DPPC   PO4 3854   0.342   1.975   2.350
  322DPPC   GL1 3855   0.291   1.923   2.650
  322DPPC   GL2 3856   0.484   2.011   2.650
  322DPPC   C1A 3857   0.304   1.959   2.950
  322DPPC   C2A 3858   0.279   2.011   3.250
  322DPPC   C3A 3859   0.303   2.006   3.550
  322DPPC   C4A 3860   0.343   1.929   3.850
  322DPPC   C1B 3861   0.561   1.971   2.950
  322DPPC   C2B 3862   0.566   1.947   3.250
  322DPPC   C3B 3863   0.599   2.002   3.550
  322DPPC   C4B 3864   0.530   1.997   3.850
  323DPPC   NC3 3865   5.993   4.325   2.050
  323DPPC   PO4 3866   5.896   4.325   2.350
  323DPPC   GL1 3867   5.928   4.263   2.650
  323DPPC   GL2 3868   5.868   4.321   2.650
  323DPPC   C1A 3869   5.937   4.303   2.950
  323DPPC   C2A 3870   5.946   4.300   3.250
  323DPPC   C3A 3871   5.916   4.234   3.550
  323DPPC   C4A 3872   5.976   4.244   3.850
  323DPPC   C1B 3873   5.663   4.324   2.950
  323DPPC   C2B 3874   5.654   4.243   3.250
  323DPPC   C3B 3875   5.691   4.258   3.550
  323DPPC   C4B 3876   5.710   4.315   3.850
  324DPPC   NC3 3877   1.284   5.145   2.050
  324DPPC   PO4 3878   1.348   5.126   2.350
  324DPPC   GL1 3879   1.269   5.118   2.650
  324DPPC   GL2 3880   1.190   5.047   2.650
  324DPPC   C1A 3881   1.288   5.162   2.950
  324DPPC   C2A 3882   1.348   5.141   3.250
  324DPPC   C3A 3883   1.300   5.155   3.550
  324DPPC   C4A 3884   1.340   5.086   3.850
  324DPPC   C1B 3885   1.065   4.952   2.950
  324DPPC   C2B 3886   1.110   4.939   3.250
  324DPPC   C3B 3887   1.089   4.958   3.550
  324DPPC   C4B 3888   1.142   5.015   3.850
  325DPPC   NC3 3889   1.240   9.758   2.050
  325DPPC   PO4 3890   1.313   9.774   2.350
  325DPPC   GL1 3891   1.274   9.727   2.650
  325DPPC   GL2 3892   1.193   9.636   2.650
  325DPPC   C1A 3893   1.278   9.770   2.950
  325DPPC   C2A 3894   1.233   9.767   3.250
  325DPPC   C3A 3895   1.241   9.765   3.550
  325DPPC   C4A 3896   1.298   9.759   3.850
  325DPPC   C1B 3897   1.150   9.530   2.950
  325DPPC   C2B 3898   1.153   9.534   3.250
  325DPPC   C3B 3899   1.172   9.517   3.550
  325DPPC   C4B 3900   1.086   9.589   3.850
  326DPPC   NC3 3901   4.948   6.595   2.050
  326DPPC   PO4 3902   4.921   6.534   2.350
  326DPPC   GL1 3903   4.936   6.551   2.650
  326DPPC   GL2 3904   5.057   6.561   2.650
  326DPPC   C1A 3905   4.885   6.516   2.950
  326DPPC   C2A 3906   4.960   6.530   3.250
  326DPPC   C3A 3907   4.950   6.588   3.550
  326DPPC   C4A 3908   4.964   6.521   3.850
  326DPPC   C1B 3909   5.159   6.580   2.950
  326DPPC   C2B 3910   5.125   6.607   3.250
  326DPPC   C3B 3911   5.218   6.588   3.550
  326DPPC   C4B 3912   5.205   6.602   3.850
  327DPPC   NC3 3913   2.839   9.573   2.050
  327DPPC   PO4 3914   2.853   9.628   2.350
  327DPPC   GL1 3915   2.798   9.578   2.650
  327DPPC   GL2 3916   2.701   9.661   2.650
  327DPPC   C1A 3917   2.796   9.552   2.950
  327DPPC   C2A 3918   2.849   9.578   3.250
  327DPPC   C3A 3919   2.847   9.543   3.550
  327DPPC   C4A 3920   2.795   9.611   3.850
  327DPPC   C1B 3921   2.680   9.776   2.950
  327DPPC   C2B 3922   2.657   9.707   3.250
  327DPPC   C3B 3923   2.671   9.776   3.550
  327DPPC   C4B 3924   2.649   9.722   3.850
  328DPPC   NC3 3925   7.248   9.585   2.050
  328DPPC   PO4 3926   7.333   9.535   2.350
  328DPPC   GL1 3927   7.299   9.511   2.650
  328DPPC   GL2 3928   7.344   9.707   2.650
  328DPPC   C1A 3929   7.310   9.511   2.950
  328DPPC   C2A 3930   7.261   9.574   3.250
  328DPPC   C3A 3931   7.336   9.520   3.550
  328DPPC   C4A 3932   7.338   9.562   3.850
  328DPPC   C1B 3933   7.466   9.773   2.950
  328DPPC   C2B 3934   7.425   9.722   3.250
  328DPPC   C3B 3935   7.422   9.738   3.550
  328DPPC   C4B 3936   7.406   9.731   3.850
  329DPPC   NC3 3937   8.299   9.699   2.050
  329DPPC   PO4 3938   8.226   9.600   2.350
  329DPPC   GL1 3939   8.236   9.678   2.650
  329DPPC   GL2 3940   8.117   9.686   2.650
  329DPPC   C1A 3941   8.217   9.657   2.950
  329DPPC   C2A 3942   8.254   9.664   3.250
  329DPPC   C3A 3943   8.242   9.657   3.550
  329DPPC   C4A 3944   8.295   9.662   3.850
  329DPPC   C1B 3945   7.965   9.667   2.950
  329DPPC   C2B 3946   8.028   9.695   3.250
  329DPPC   C3B 3947   7.992   9.727   3.550
  329DPPC   C4B 3948   8.013   9.666   3.850
  330DPPC   NC3 3949   9.778   2.058   2.050
  330DPPC   PO4 3950   9.757   2.096   2.350
  330DPPC   GL1 3951   9.723   2.078   2.650
  330DPPC   GL2 3952   9.641   1.973   2.650
  330DPPC   C1A 3953   9.707   2.034   2.950
  330DPPC   C2A 3954   9.701   2.112   3.250
  330DPPC   C3A 3955   9.708   2.078   3.550
  330DPPC   C4A 3956   9.722   2.081   3.850
  330DPPC   C1B 3957   9.616   1.843   2.950
  330DPPC   C2B 3958   9.606   1.848   3.250
  330DPPC   C3B 3959   9.545   1.831   3.550
  330DPPC   C4B 3960   9.602   1.863   3.850
  331DPPC   NC3 3961   2.862   1.137   2.050
  331DPPC   PO4 3962   2.841   1.141   2.350
  331DPPC   GL1 3963   2.888   1.106   2.650
  331DPPC   GL2 3964   2.748   1.234   2.650
  331DPPC   C1A 3965   2.890   1.150   2.950
  331DPPC   C2A 3966   2.892   1.097   3.250
  331DPPC   C3A 3967   2.894   1.105   3.550
  331DPPC   C4A 3968   2.828   1.115   3.850
  331DPPC   C1B 3969   2.601   1.232   2.950
  331DPPC   C2B 3970   2.631   1.274   3.250
  331DPPC   C3B 3971   2.642   1.237   3.550
  331DPPC   C4B 3972   2.635   1.238   3.850
  332DPPC   NC3 3973   5.800   5.213   2.050
  332DPPC   PO4 3974   5.837   5.213   2.350
  332DPPC   GL1 3975   5.868   5.194   2.650
  332DPPC   GL2 3976   5.865   5.016   2.650
  332DPPC   C1A 3977   5.865   5.144   2.950
  332DPPC   C2A 3978   5.814   5.217   3.250
  332DPPC   C3A 3979   5.867   5.127   3.550
  332DPPC   C4A 3980   5.821   5.153   3.850
  332DPPC   C1B 3981   5.778   4.969   2.950
  332DPPC   C2B 3982   5.856   4.925   3.250
  332DPPC   C3B 3983   5.807   4.906   3.550
  332DPPC   C4B 3984   5.843   4.922   3.850
  333DPPC   NC3 3985   5.037   1.113   2.050
  333DPPC   PO4 3986   5.099   1.062   2.350
  333DPPC   GL1 3987   5.083   1.102   2.650
  333DPPC   GL2 3988   5.035   1.253   2.650
  333DPPC   C1A 3989   5.084   1.052   2.950
  333DPPC   C2A 3990   5.104   1.055   3.250
  333DPPC   C3A 3991   5.104   1.128   3.550
  333DPPC   C4A 3992   5.038   1.035   3.850
  333DPPC   C1B 3993   5.026   1.340   2.950
  333DPPC   C2B 3994   4.998   1.348   3.250
  333DPPC   C3B 3995   5.001   1.340   3.550
  333DPPC   C4B 3996   5.061   1.328   3.850
  334DPPC   NC3 3997   1.871   1.138   2.050
  334DPPC   PO4 3998   1.813   1.172   2.350
  334DPPC   GL1 3999   1.904   1.192   2.650
  334DPPC   GL2 4000   1.928   1.169   2.650
  334DPPC   C1A 4001   1.859   1.170   2.950
  334DPPC   C2A 4002   1.903   1.152   3.250
  334DPPC   C3A 4003   1.883   1.194   3.550
  334DPPC   C4A 4004   1.883   1.161   3.850
  334DPPC   C1B 4005   2.114   1.270   2.950
  334DPPC   C2B 4006   2.046   1.276   3.250
  334DPPC   C3B 4007   2.059   1.289   3.550
  334DPPC   C4B 4008   2.109   1.228   3.850
  335DPPC   NC3 4009   2.695   3.622   2.050
  335DPPC   PO4 4010   2.714   3.594   2.350
  335DPPC   GL1 4011   2.710   3.674   2.650
  335DPPC   GL2 4012   2.695   3.475   2.650
  335DPPC   C1A 4013   2.753   3.615   2.950
  335DPPC   C2A 4014   2.765   3.617   3.250
  335DPPC   C3A 4015   2.742   3.651   3.550
  335DPPC   C4A 4016   2.720   3.634   3.850
  335DPPC   C1B 4017   2.724   3.359   2.950
  335DPPC   C2B 4018   2.800   3.351   3.250
  335DPPC   C3B 4019   2.787   3.392   3.550
  335DPPC   C4B 4020   2.747   3.341   3.850
  336DPPC   NC3 4021   5.730   0.479   2.050
  336DPPC   PO4 4022   5.688   0.485   2.350
  336DPPC   GL1 4023   5.675   0.451   2.650
  336DPPC   GL2 4024   5.832   0.388   2.650
  336DPPC   C1A 4025   5.650   0.428   2.950
  336DPPC   C2A 4026   5.730   0.476   3.250
  336DPPC   C3A 4027   5.708   0.498   3.550
  336DPPC   C4A 4028   5.720   0.498   3.850
  336DPPC   C1B 4029   5.975   0.377   2.950
  336DPPC   C2B 4030   5.900   0.463   3.250
  336DPPC   C3B 4031   5.894   0.449   3.550
  336DPPC   C4B 4032   5.912   0.446   3.850
  337DPPC   NC3 4033   9.557   6.529   2.050
  337DPPC   PO4 4034   9.532   6.460   2.350
  337DPPC   GL1 4035   9.582   6.489   2.650
  337DPPC   GL2 4036   9.676   6.559   2.650
  337DPPC   C1A 4037   9.594   6.521   2.950
  337DPPC   C2A 4038   9.546   6.493   3.250
  337DPPC   C3A 4039   9.530   6.473   3.550
  337DPPC   C4A 4040   9.575   6.477   3.850
  337DPPC   C1B 4041   9.749   6.672   2.950
  337DPPC   C2B 4042   9.726   6.716   3.250
  337DPPC   C3B 4043   9.750   6.725   3.550
  337DPPC   C4B 4044   9.748   6.719   3.850
  338DPPC   NC3 4045   6.716   5.822   2.050
  338DPPC   PO4 4046   6.701   5.830   2.350
  338DPPC   GL1 4047   6.668   5.870   2.650
  338DPPC   GL2 4048   6.612   5.847   2.650
  338DPPC   C1A 4049   6.739   5.833   2.950
  338DPPC   C2A 4050   6.686   5.816   3.250
  338DPPC   C3A 4051   6.659   5.890   3.550
  338DPPC   C4A 4052   6.663   5.854   3.850
  338DPPC   C1B 4053   6.514   5.783   2.950
  338DPPC   C2B 4054   6.477   5.723   3.250
  338DPPC   C3B 4055   6.440   5.782   3.550
  338DPPC   C4B 4056   6.496   5.762   3.850
  339W        W 4057   3.147   4.052   1.301
  340W        W 4058   8.507   4.181   1.342
  341W        W 4059   0.863   4.116   0.457
  342W        W 4060   3.159   7.433   7.827
  343W        W 4061   2.825   2.322   7.001
  344W        W 4062   7.103   2.622   0.825
  345W        W 4063   0.729   0.401   1.698
  346W        W 4064   3.656   8.838   7.357
  347W        W 4065   6.090   8.944   1.380
  348W        W 4066   5.561   5.970   7.365
  349W        W 4067   7.502   7.521   0.339
  350W        W 4068   5.078   2.771   7.518
  351W        W 4069   4.586   7.940   6.912
  352W        W 4070   5.603   2.350   0.924
  353W        W 4071   6.493   0.462   1.186
  354W        W 4072   4.176   6.534   0.414
  355W        W 4073   6.044   0.447   6.992
  356W        W 4074   2.691   1.795   7.507
  357W        W 4075   8.836   3.202   1.232
  358W        W 4076   1.194   5.530   0.417
  359W        W 4077   6.484   0.274   0.415
  360W        W 4078   2.798   2.345   0.732
  361W        W 4079   0.347   8.462   7.448
  362W        W 4080   2.168   0.872   0.779
  363W        W 4081   7.863   2.782   0.256
  364W        W 4082   6.513   6.138   1.411
  365W        W 4083   9.928   1.291   6.906
  366W        W 4084   3.194   5.167   6.827
  367W        W 4085   6.551   7.535   7.900
  368W        W 4086   7.062   0.727   7.298
  369W        W 4087   9.309   9.013   7.473
  370W        W 4088   2.840   9.929   1.412
  371W        W 4089   5.678   7.543   0.816
  372W        W 4090   4.526   6.541   0.380
  373W        W 4091   9.500   5.548   0.369
  374W        W 4092   1.364   1.213   0.410
  375W        W 4093   9.780   3.230   6.896
  376W        W 4094   7.090   0.439   6.958
  377W        W 4095   0.903   5.989   7.899
  378W        W 4096   0.415   3.142   1.185
  379W        W 4097   4.240   8.818   0.417
  380W        W 4098   9.387   0.950   1.348
  381W        W 4099   8.535   0.255   0.724
  382W        W 4100   2.381   3.753   6.865
  383W        W 4101   6.068   6.060   7.043
  384W        W 4102   0.802   5.959   7.354
  385W        W 4103   1.339   7.544   7.511
  386W        W 4104   8.066   4.245   6.936
  387W        W 4105   2.782   9.300   7.503
  388W        W 4106   7.538   8.986   7.870
  389W        W 4107   3.609   4.657   7.328
  390W        W 4108   6.498   0.930   7.473
  391W        W 4109   9.795   7.578   6.891
  392W        W 4110   1.776   5.695   1.677
  393W        W 4111   9.338   5.677   7.942
  394W        W 4112   1.393   4.220   0.770
  395W        W 4113   9.374   0.385   6.974
  396W        W 4114   5.960   4.169   0.365
  397W        W 4115   7.870   7.571   6.827
  398W        W 4116   0.768   0.385   0.271
  399W        W 4117   7.142   5.546   7.342
  400W        W 4118   7.005   7.910   7.517
  401W        W 4119   3.796   1.375   6.827
  402W        W 4120   2.738   7.587   0.814
  403W        W 4121   9.008   5.994   6.910
  404W        W 4122   0.764   0.435   7.980
  405W        W 4123   4.175   9.015   1.409
  406W        W 4124   3.280   5.002   7.458
  407W        W 4125   1.348   4.122   7.910
  408W        W 4126   8.570   5.108   7.485
  409W        W 4127   9.024   0.924   0.710
  410W        W 4128   7.138   5.066   7.963
  411W        W 4129   8.367   3.679   0.716
  412W        W 4130   2.289   5.714   0.826
  413W        W 4131   8.892   5.704   0.740
  414W        W 4132   1.865   1.423   7.505
  415W        W 4133   5.480   9.339   6.363
  416W        W 4134   4.562   9.933   0.841
  417W        W 4135   4.048   2.199   0.794
  418W        W 4136   6.116   7.029   6.922
  419W        W 4137   9.930   5.627   7.492
  420W        W 4138   3.790   9.425   1.304
  421W        W 4139   6.184   8.007   0.431
  422W        W 4140   5.074   0.256   1.382
  423W        W 4141   8.041   4.129   0.807
  424W        W 4142   8.526   6.605   0.743
  425W        W 4143   8.972   6.910   1.798
  426W        W 4144   6.959   4.649   0.326
  427W        W 4145   2.620   6.529   0.359
  428W        W 4146   5.679   7.595   0.424
  429W        W 4147   1.387   1.290   7.322
  430W        W 4148   6.064   2.241   0.288
  431W        W 4149   5.194   5.150   1.216
  432W        W 4150   6.609   2.240   7.831
  433W        W 4151   1.300   1.262   8.000
  434W        W 4152   4.281   0.925   1.335
  435W        W 4153   5.048   6.526   1.220
  436W        W 4154   9.875   9.362   7.503
  437W        W 4155   1.218   5.202   0.863
  438W        W 4156   7.444   2.360   0.884
  439W        W 4157   0.937   1.843   6.830
  440W        W 4158   8.342   9.036   6.972
  441W        W 4159   6.169   1.806   6.984
  442W        W 4160   8.556   9.447   7.809
  443W        W 4161   6.062   6.523   0.365
  444W        W 4162   0.352   6.541   0.868
  445W        W 4163   9.006   9.772   7.362
  446W        W 4164   5.509   1.678   7.929
  447W        W 4165   9.403   1.198   1.713
  448W        W 4166   5.622   7.058   7.825
  449W        W 4167   9.885   5.534   6.871
  450W        W 4168   2.275   0.354   6.864
  451W        W 4169   4.283   3.148   7.969
  452W        W 4170   3.129   6.591   0.873
  453W        W 4171   7.084   5.002   1.209
  454W        W 4172   9.811   3.753   0.410
  455W        W 4173   4.060   1.717   0.371
  456W        W 4174   7.866   0.843   1.685
  457W        W 4175   4.202   4.163   1.284
  458W        W 4176   3.312   9.473   0.785
  459W        W 4177   0.443   7.940   7.374
  460W        W 4178   5.992   9.458   0.395
  461W        W 4179   2.731   4.748   6.928
  462W        W 4180   6.084   0.271   0.707
  463W        W 4181   2.184   3.138   0.810
  464W        W 4182   1.832   6.026   7.462
  465W        W 4183   8.343   1.688   6.953
  466W        W 4184   3.197   6.575   7.848
  467W        W 4185   2.815   3.178   7.985
  468W        W 4186   1.769   6.989   6.558
  469W        W 4187   9.370   4.701   7.485
  470W        W 4188   6.662   8.365   7.477
  471W        W 4189   7.082   8.968   7.331
  472W        W 4190   9.461   4.208   7.769
  473W        W 4191   9.930   3.151   6.435
  474W        W 4192   4.051   8.970   7.359
  475W        W 4193   5.618   5.508   1.697
  476W        W 4194   7.420   1.203   7.416
  477W        W 4195   9.323   9.039   1.308
  478W        W 4196   3.314   1.706   6.386
  479W        W 4197   1.687   4.736   7.914
  480W        W 4198   2.296   8.054   7.785
  481W        W 4199   4.591   6.077   6.937
  482W        W 4200   2.802   4.535   7.997
  483W        W 4201   1.325   3.648   7.795
  484W        W 4202   9.905   5.615   7.845
  485W        W 4203   7.588   3.646   7.520
  486W        W 4204   0.939   2.659   7.367
  487W        W 4205   2.186   6.565   0.840
  488W        W 4206   8.925   7.429   7.399
  489W        W 4207   2.619   7.491   7.793
  490W        W 4208   2.278   2.765   6.935
  491W        W 4209   8.564   5.543   0.437
  492W        W 4210   7.941   0.732   1.204
  493W        W 4211   5.146   4.190   0.460
  494W        W 4212   6.603   1.290   6.985
  495W        W 4213   7.387   4.745   0.880
  496W        W 4214   3.637   1.365   0.262
  497W        W 4215   5.520   6.986   6.829
  498W        W 4216   6.078   2.718   0.252
  499W        W 4217   7.542   3.280   6.840
  500W        W 4218   4.705   7.478   0.852
  501W        W 4219   4.076   8.060   1.756
  502W        W 4220   0.731   1.803   0.714
  503W        W 4221   0.720   6.617   0.323
  504W        W 4222   1.401   8.951   0.797
  505W        W 4223   5.589   8.344   0.767
  506W        W 4224   9.473   2.827   7.047
  507W        W 4225   1.822   7.565   0.363
  508W        W 4226   5.100   7.031   0.883
  509W        W 4227   4.171   9.434   0.708
  510W        W 4228   2.257   7.580   6.862
  511W        W 4229   9.369   8.435   7.031
  512W        W 4230   9.808   6.942   0.316
  513W        W 4231   5.129   2.291   1.342
  514W        W 4232   9.833   0.811   7.524
  515W        W 4233   6.606   8.505   0.438
  516W        W 4234   6.105   1.801   1.285
  517W        W 4235   6.905   0.448   0.373
  518W        W 4236   9.960   5.189   6.877
  519W        W 4237   6.572   9.903   1.320
  520W        W 4238   3.746   3.141   7.420
  521W        W 4239   1.325   6.183   7.942
  522W        W 4240   9.446   8.964   7.897
  523W        W 4241   2.802   3.196   0.830
  524W        W 4242   5.148   3.684   7.341
  525W        W 4243   3.795   5.529   7.861
  526W        W 4244   2.268   7.471   1.268
  527W        W 4245   6.634   0.469   0.755
  528W        W 4246   2.381   2.147   6.483
  529W        W 4247   5.091   0.887   0.325
  530W        W 4248   8.819   4.180   0.920
  531W        W 4249   0.344   7.089   0.378
  532W        W 4250   9.005   6.948   0.456
  533W        W 4251   6.572   8.075   6.894
  534W        W 4252   8.568   1.207   1.258
  535W        W 4253   3.106   3.237   7.500
  536W        W 4254   7.508   5.965   7.432
  537W        W 4255   3.271   9.986   1.398
  538W        W 4256   8.051   9.357   6.567
  539W        W 4257   4.707   7.451   7.413
  540W        W 4258   5.126   8.828   0.821
  541W        W 4259   5.129   2.625   6.930
  542W        W 4260   1.705   6.659   6.924
  543W        W 4261   6.937   2.195   7.359
  544W        W 4262   1.689   9.884   1.762
  545W        W 4263   1.193   9.915   0.778
  546W        W 4264   5.647   5.002   7.301
  547W        W 4265   7.495   6.506   1.356
  548W        W 4266   6.132   0.281   7.976
  549W        W 4267   6.988   1.429   7.487
  550W        W 4268   1.197   2.147   6.862
  551W        W 4269   8.094   8.390   7.939
  552W        W 4270   1.712   7.099   7.408
  553W        W 4271   6.959   5.661   0.820
  554W        W 4272   0.864   6.531   1.326
  555W        W 4273   0.738   1.212   6.960
  556W        W 4274   1.351   0.256   1.187
  557W        W 4275   0.872   7.405   7.499
  558W        W 4276   2.378   4.638   1.303
  559W        W 4277   9.778   0.751   7.813
  560W        W 4278   6.954   3.237   7.002
  561W        W 4279   5.674   6.650   7.840
  562W        W 4280   9.317   9.384   0.872
  563W        W 4281   2.249   9.359   7.484
  564W        W 4282   4.277   0.326   1.285
  565W        W 4283   9.006   0.921   7.926
  566W        W 4284   8.958   5.104   1.332
  567W        W 4285   9.318   3.311   7.882
  568W        W 4286   7.405   2.259   7.512
  569W        W 4287   5.022   9.356   1.188
  570W        W 4288   0.452   6.435   6.920
  571W        W 4289   2.807   2.790   0.381
  572W        W 4290   1.861   5.580   7.964
  573W        W 4291   9.464   2.797   7.468
  574W        W 4292   6.441   4.689   7.914
  575W        W 4293   0.865   8.981   7.386
  576W        W 4294   0.471   1.271   0.286
  577W        W 4295   4.048   9.295   0.451
  578W        W 4296   6.966   2.169   1.683
  579W        W 4297   6.905   6.434   7.043
  580W        W 4298   4.233   8.457   7.300
  581W        W 4299   6.631   5.505   0.401
  582W        W 4300   8.881   3.638   1.273
  583W        W 4301   4.715   4.710   6.932
  584W        W 4302   5.481   2.677   7.427
  585W        W 4303   2.654   4.757   7.312
  586W        W 4304   9.777   4.671   7.783
  587W        W 4305   3.770   0.857   0.887
  588W        W 4306   5.688   8.836   0.708
  589W        W 4307   8.473   7.008   0.360
  590W        W 4308   1.328   1.871   1.291
  591W        W 4309   9.875   6.003   7.047
  592W        W 4310   2.674   9.426   7.996
  593W        W 4311   6.448   7.036   6.975
  594W        W 4312   4.634   4.049   7.768
  595W        W 4313   3.795   8.399   7.926
  596W        W 4314   2.699   2.226   7.437
  597W        W 4315   0.814   7.569   0.921
  598W        W 4316   4.174   7.132   1.679
  599W        W 4317   1.879   3.699   6.847
  600W        W 4318   8.467   3.172   7.879
  601W        W 4319   1.881   1.244   6.954
  602W        W 4320   4.122   5.972   6.917
  603W        W 4321   3.700   8.489   7.379
  604W        W 4322   5.199   9.499   7.957
  605W        W 4323   3.200   6.137   6.401
  606W        W 4324   3.326   2.661   0.446
  607W        W 4325   7.903   5.612   7.855
  608W        W 4326   9.887   6.625   1.381
  609W        W 4327   8.081   3.149   0.339
  610W        W 4328   7.141   2.287   7.974
  611W        W 4329   8.896   6.096   0.884
  612W        W 4330   3.649   1.862   0.803
  613W        W 4331   3.589   4.178   0.917
  614W        W 4332   6.072   3.621   6.876
  615W        W 4333   6.494   1.195   0.810
  616W        W 4334   8.871   8.408   7.913
  617W        W 4335   1.282   2.322   7.462
  618W        W 4336   8.028   9.489   7.046
  619W        W 4337   8.922   3.767   7.026
  620W        W 4338   1.722   7.392   1.280
  621W        W 4339   6.486   3.703   7.916
  622W        W 4340   2.267   1.708   1.268
  623W        W 4341   0.369   4.144   0.427
  624W        W 4342   5.012   0.419   0.756
  625W        W 4343   7.598   3.593   0.720
  626W        W 4344   1.369   6.090   7.320
  627W        W 4345   6.658   7.912   0.823
  628W        W 4346   7.504   7.474   7.516
  629W        W 4347   3.135   0.795   7.018
  630W        W 4348   2.249   6.028   6.902
  631W        W 4349   1.700   3.757   0.800
  632W        W 4350   0.292   5.052   7.309
  633W        W 4351   5.121   2.753   0.259
  634W        W 4352   1.409   0.847   7.428
  635W        W 4353   1.384   6.002   6.857
  636W        W 4354   5.480   7.089   7.529
  637W        W 4355   5.196   0.725   7.910
  638W        W 4356   7.942   9.779   0.272
  639W        W 4357   0.262   7.483   1.305
  640W        W 4358   1.360   3.308   6.448
  641W        W 4359   4.539   3.806   0.726
  642W        W 4360   2.762   3.803   7.796
  643W        W 4361   0.432   9.406   0.371
  644W        W 4362   3.647   7.883   0.786
  645W        W 4363   4.081   0.798   7.484
  646W        W 4364   0.370   9.425   1.228
  647W        W 4365   4.703   3.116   1.224
  648W        W 4366   5.572   2.219   0.370
  649W        W 4367   9.433   7.385   6.540
  650W        W 4368   5.139   1.762   0.414
  651W        W 4369   4.081   5.666   0.742
  652W        W 4370   3.581   8.088   7.447
  653W        W 4371   2.204   9.302   7.783
  654W        W 4372   8.522   9.473   1.335
  655W        W 4373   3.708   8.896   0.727
  656W        W 4374   4.099   0.409   7.305
  657W        W 4375   9.456   2.344   1.349
  658W        W 4376   5.520   4.549   0.910
  659W        W 4377   3.173   3.676   0.865
  660W        W 4378   8.547   3.164   0.784
  661W        W 4379   3.210   7.058   7.359
  662W        W 4380   6.494   5.073   7.415
  663W        W 4381   9.481   6.091   1.315
  664W        W 4382   2.380   5.713   7.846
  665W        W 4383   4.266   6.532   6.876
  666W        W 4384   0.434   9.515   7.926
  667W        W 4385   3.612   7.484   7.345
  668W        W 4386   4.113   1.707   7.938
  669W        W 4387   4.721   0.414   1.790
  670W        W 4388   2.268   7.066   7.336
  671W        W 4389   3.106   7.037   7.818
  672W        W 4390   0.264   2.151   7.893
  673W        W 4391   2.739   7.458   6.906
  674W        W 4392   8.841   4.217   6.918
  675W        W 4393   3.576   5.994   7.832
  676W        W 4394   5.105   6.495   0.829
  677W        W 4395   1.220   2.145   7.895
  678W        W 4396   0.340   6.944   1.367
  679W        W 4397   6.512   8.547   1.192
  680W        W 4398   7.084   2.219   0.301
  681W        W 4399   9.848   4.633   7.339
  682W        W 4400   9.471   0.916   0.416
  683W        W 4401   9.835   6.140   1.210
  684W        W 4402   0.894   8.345   0.711
  685W        W 4403   5.133   4.217   1.282
  686W        W 4404   2.254   1.381   0.750
  687W        W 4405   8.432   2.652   7.932
  688W        W 4406   4.581   2.306   6.854
  689W        W 4407   7.453   3.688   0.264
  690W        W 4408   4.183   4.654   7.992
  691W        W 4409   6.963   0.390   7.523
  692W        W 4410   5.539   0.759   1.206
  693W        W 4411   5.167   5.667   0.392
  694W        W 4412   3.726   4.531   0.739
  695W        W 4413   0.337   0.367   0.731
  696W        W 4414   7.997   2.280   6.834
  697W        W 4415   5.223   4.062   7.812
  698W        W 4416   8.869   0.399   7.790
  699W        W 4417   8.989   3.151   0.270
  700W        W 4418   8.023   1.866   0.823
  701W        W 4419   0.770   2.850   0.249
  702W        W 4420   0.257   1.366   7.940
  703W        W 4421   1.337   1.755   7.879
  704W        W 4422   2.282   9.408   0.884
  705W        W 4423   0.943   5.629   7.466
  706W        W 4424   1.213   7.004   7.443
  707W        W 4425   2.645   0.321   1.347
  708W        W 4426   6.997   1.905   0.823
  709W        W 4427   8.064   0.797   7.498
  710W        W 4428   4.583   5.238   1.314
  711W        W 4429   8.829   5.612   1.213
  712W        W 4430   2.758   5.601   1.255
  713W        W 4431   7.020   9.344   0.408
  714W        W 4432   8.902   5.223   7.866
  715W        W 4433   4.549   7.382   0.436
  716W        W 4434   5.609   8.526   7.840
  717W        W 4435   2.361   2.792   0.458
  718W        W 4436   0.827   7.058   0.873
  719W        W 4437   5.483   1.667   6.956
  720W        W 4438   1.851   8.469   7.838
  721W        W 4439   6.580   9.308   7.965
  722W        W 4440   7.039   4.536   0.715
  723W        W 4441   5.518   4.146   1.212
  724W        W 4442   8.380   9.041   1.307
  725W        W 4443   4.203   4.170   0.805
  726W        W 4444   4.524   8.474   1.251
  727W        W 4445   5.053   8.949   7.899
  728W        W 4446   8.493   4.095   0.877
  729W        W 4447   8.057   4.702   0.343
  730W        W 4448   6.659   6.145   7.327
  731W        W 4449   9.371   5.549   7.044
  732W        W 4450   9.983   0.427   1.238
  733W        W 4451   2.806   9.487   6.413
  734W        W 4452   5.640   2.622   1.227
  735W        W 4453   9.360   9.038   0.426
  736W        W 4454   7.523   2.726   0.879
  737W        W 4455   7.033   3.730   0.363
  738W        W 4456   8.899   8.884   7.411
  739W        W 4457   8.038   8.545   0.275
  740W        W 4458   2.188   2.823   0.831
  741W        W 4459   7.577   8.414   7.879
  742W        W 4460   0.896   5.565   0.855
  743W        W 4461   2.771   7.099   7.367
  744W        W 4462   6.544   4.634   0.713
  745W        W 4463   7.060   3.701   0.773
  746W        W 4464   5.089   9.762   7.042
  747W        W 4465   7.974   3.763   0.858
  748W        W 4466   1.848   1.234   0.252
  749W        W 4467   5.996   5.627   7.045
  750W        W 4468   4.253   9.365   1.279
  751W        W 4469   9.456   3.742   1.242
  752W        W 4470   2.741   5.630   0.283
  753W        W 4471   3.126   1.379   7.879
  754W        W 4472   5.519   1.319   1.846
  755W        W 4473   4.661   9.028   0.282
  756W        W 4474   9.432   9.314   7.886
  757W        W 4475   6.152   5.144   0.260
  758W        W 4476   1.717   3.271   0.774
  759W        W 4477   7.987   2.827   6.544
  760W        W 4478   4.760   9.835   0.385
  761W        W 4479   9.302   5.054   6.563
  762W        W 4480   6.928   9.494   7.993
  763W        W 4481   9.422   2.365   7.051
  764W        W 4482   0.777   2.249   7.802
  765W        W 4483   8.359   0.299   7.387
  766W        W 4484   3.228   3.583   7.318
  767W        W 4485   3.691   7.085   1.232
  768W        W 4486   1.410   1.713   7.474
  769W        W 4487   7.113   0.798   7.775
  770W        W 4488   3.582   9.994   7.057
  771W        W 4489   5.110   3.717   0.918
  772W        W 4490   6.642   9.509   1.320
  773W        W 4491   5.208   8.403   1.308
  774W        W 4492   0.454   7.918   6.976
  775W        W 4493   2.260   0.456   7.375
  776W        W 4494   6.978   2.804   1.243
  777W        W 4495   2.819   7.493   0.405
  778W        W 4496   9.817   8.073   7.445
  779W        W 4497   5.053   6.934   7.477
  780W        W 4498   7.548   8.566   6.563
  781W        W 4499   3.615   6.084   6.964
  782W        W 4500   9.353   5.614   1.751
  783W        W 4501   5.692   1.397   7.952
  784W        W 4502   5.543   5.547   6.891
  785W        W 4503   0.432   1.229   1.294
  786W        W 4504   4.092   0.471   6.517
  787W        W 4505   6.460   5.215   0.447
  788W        W 4506   7.858   5.527   0.883
  789W        W 4507   1.717   0.347   0.246
  790W        W 4508   1.683   2.248   1.220
  791W        W 4509   4.144   8.922   0.843
  792W        W 4510   5.158   1.672   7.769
  793W        W 4511   7.124   7.092   0.737
  794W        W 4512   8.363   0.472   0.244
  795W        W 4513   8.824   2.631   6.965
  796W        W 4514   9.399   7.956   1.181
  797W        W 4515   7.559   9.360   7.838
  798W        W 4516   8.990   0.754   7.464
  799W        W 4517   4.062   6.115   7.965
  800W        W 4518   8.013   1.856   6.833
  801W        W 4519   7.494   0.870   7.891
  802W        W 4520   0.336   6.945   6.979
  803W        W 4521   4.711   3.610   1.367
  804W        W 4522   2.637   1.410   1.261
  805W        W 4523   4.151   3.652   0.783
  806W        W 4524   3.209   7.467   0.830
  807W        W 4525   8.985   2.246   7.850
  808W        W 4526   4.591   7.510   1.269
  809W        W 4527   4.711   0.740   7.780
  810W        W 4528   8.561   5.540   6.881
  811W        W 4529   5.630   6.957   6.489
  812W        W 4530   0.781   4.606   7.007
  813W        W 4531   5.625   6.032   7.802
  814W        W 4532   2.362   8.074   0.940
  815W        W 4533   2.358   5.488   1.353
  816W        W 4534   2.269   6.919   0.818
  817W        W 4535   0.436   8.930   0.451
  818W        W 4536   7.480   0.720   6.928
  819W        W 4537   1.235   7.001   1.407
  820W        W 4538   0.874   0.903   0.438
  821W        W 4539   4.053   5.712   1.341
  822W        W 4540   5.084   5.142   7.347
  823W        W 4541   1.265   9.044   7.855
  824W        W 4542   4.613   2.786   7.464
  825W        W 4543   6.907   8.465   7.501
  826W        W 4544   0.717   7.123   0.277
  827W        W 4545   2.168   8.917   7.784
  828W        W 4546   5.600   0.458   0.467
  829W        W 4547   9.356   8.541   0.343
  830W        W 4548   0.842   3.589   0.853
  831W        W 4549   4.233   0.740   7.860
  832W        W 4550   5.137   3.271   0.322
  833W        W 4551   4.157   2.319   1.256
  834W        W 4552   1.741   8.023   1.376
  835W        W 4553   5.551   2.855   6.540
  836W        W 4554   9.478   8.077   7.870
  837W        W 4555   7.075   1.823   7.329
  838W        W 4556   8.926   5.081   0.856
  839W        W 4557   9.369   4.050   6.907
  840W        W 4558   0.311   9.896   0.915
  841W        W 4559   3.800   1.825   7.033
  842W        W 4560   1.782   6.067   7.989
  843W        W 4561   4.731   5.187   0.769
  844W        W 4562   8.493   1.404   0.916
  845W        W 4563   3.685   7.427   0.271
  846W        W 4564   9.306   5.161   0.346
  847W        W 4565   7.085   2.629   0.280
  848W        W 4566   5.183   6.155   7.029
  849W        W 4567   5.667   4.711   0.331
  850W        W 4568   5.581   4.052   7.996
  851W        W 4569   3.147   0.716   7.343
  852W        W 4570   0.877   9.921   7.436
  853W        W 4571   5.627   3.664   7.971
  854W        W 4572   7.011   6.049   7.847
  855W        W 4573   4.263   4.697   0.739
  856W        W 4574   0.749   4.694   6.446
  857W        W 4575   6.965   5.962   0.249
  858W        W 4576   6.591   9.523   0.355
  859W        W 4577   1.278   2.231   1.242
  860W        W 4578   8.065   6.120   7.809
  861W        W 4579   3.239   7.064   6.879
  862W        W 4580   6.094   9.505   0.850
  863W        W 4581   8.499   5.964   7.364
  864W        W 4582   1.348   9.327   0.426
  865W        W 4583   2.855   6.458   7.951
  866W        W 4584   8.471   3.603   0.432
  867W        W 4585   5.958   8.450   6.913
  868W        W 4586   4.113   8.510   6.876
  869W        W 4587   5.222   6.923   0.350
  870W        W 4588   4.063   1.316   6.836
  871W        W 4589   5.551   9.892   0.781
  872W        W 4590   1.301   5.000   6.874
  873W        W 4591   0.768   3.770   0.390
  874W        W 4592   7.997   1.236   1.386
  875W        W 4593   8.543   5.180   7.901
  876W        W 4594   1.861   6.481   0.850
  877W        W 4595   7.389   4.535   7.987
  878W        W 4596   8.043   1.670   1.359
  879W        W 4597   8.879   1.707   0.366
  880W        W 4598   8.818   6.491   0.905
  881W        W 4599   2.695   8.821   7.999
  882W        W 4600   1.823   6.110   0.405
  883W        W 4601   9.779   9.995   0.407
  884W        W 4602   8.814   8.505   1.179
  885W        W 4603   2.256   6.026   1.275
  886W        W 4604   6.159   1.387   7.961
  887W        W 4605   3.757   0.841   0.267
  888W        W 4606   1.232   0.729   0.290
  889W        W 4607   4.607   5.518   1.682
  890W        W 4608   6.018   3.219   1.398
  891W        W 4609   3.097   3.590   7.819
  892W        W 4610   0.403   9.837   1.257
  893W        W 4611   4.533   1.195   1.315
  894W        W 4612   1.772   2.830   6.381
  895W        W 4613   3.305   8.341   7.371
  896W        W 4614   0.303   5.215   7.871
  897W        W 4615   0.331   2.312   1.327
  898W        W 4616   8.984   9.809   1.359
  899W        W 4617   4.138   2.678   7.772
  900W        W 4618   9.904   5.217   1.314
  901W        W 4619   1.415   3.315   6.919
  902W        W 4620   5.027   0.310   6.938
  903W        W 4621   5.126   3.199   0.853
  904W        W 4622   3.732   5.632   1.179
  905W        W 4623   9.507   9.845   1.222
  906W        W 4624   8.036   8.989   7.373
  907W        W 4625   7.497   4.106   6.914
  908W        W 4626   6.913   8.992   6.979
  909W        W 4627   1.868   5.693   7.463
  910W        W 4628   1.744   8.399   6.559
  911W        W 4629   0.768   8.065   7.794
  912W        W 4630   2.730   3.181   6.852
  913W        W 4631   7.542   6.599   6.869
  914W        W 4632   8.811   5.162   7.517
  915W        W 4633   1.227   6.555   1.344
  916W        W 4634   1.891   7.017   0.394
  917W        W 4635   8.397   0.416   1.186
  918W        W 4636   3.106   5.977   0.824
  919W        W 4637   3.322   0.300   1.276
  920W        W 4638   4.573   4.271   1.361
  921W        W 4639   4.200   9.812   7.046
  922W        W 4640   3.104   1.886   6.836
  923W        W 4641   2.638   1.266   6.827
  924W        W 4642   6.552   3.681   0.365
  925W        W 4643   4.636   2.189   1.323
  926W        W 4644   0.793   8.852   7.024
  927W        W 4645   7.428   4.092   1.352
  928W        W 4646   8.015   9.478   1.730
  929W        W 4647   3.757   7.892   1.236
  930W        W 4648   5.486   5.585   0.313
  931W        W 4649   8.989   5.214   0.248
  932W        W 4650   9.983   8.568   1.249
  933W        W 4651   6.582   0.288   6.914
  934W        W 4652   0.422   2.737   0.276
  935W        W 4653   0.829   2.207   1.770
  936W        W 4654   2.287   4.115   1.281
  937W        W 4655   1.394   9.859   7.468
  938W        W 4656   9.790   0.289   6.898
  939W        W 4657   3.180   8.074   1.261
  940W        W 4658   6.460   1.733   6.913
  941W        W 4659   1.847   4.093   1.755
  942W        W 4660   4.688   9.851   7.309
  943W        W 4661   7.920   9.797   0.783
  944W        W 4662   5.508   1.805   7.480
  945W        W 4663   1.342   9.380   7.464
  946W        W 4664   9.881   8.344   0.336
  947W        W 4665   9.027   7.046   1.410
  948W        W 4666   5.975   6.568   7.335
  949W        W 4667   0.747   0.892   1.397
  950W        W 4668   1.672   4.083   7.494
  951W        W 4669   8.446   2.641   7.417
  952W        W 4670   9.396   6.577   7.341
  953W        W 4671   8.566   5.133   1.326
  954W        W 4672   5.585   9.818   0.253
  955W        W 4673   4.125   2.730   0.294
  956W        W 4674   2.823   2.152   0.289
  957W        W 4675   6.111   1.726   7.885
  958W        W 4676   4.533   1.232   7.304
  959W        W 4677   9.513   7.429   7.350
  960W        W 4678   2.816   8.013   0.821
  961W        W 4679   2.763   0.315   0.931
  962W        W 4680   4.751   9.400   6.826
  963W        W 4681   0.814   6.094   0.806
  964W        W 4682   6.091   8.384   0.395
  965W        W 4683   3.628   0.417   1.350
  966W        W 4684   0.344   9.020   6.940
  967W        W 4685   5.217   7.481   0.447
  968W        W 4686   9.307   0.855   0.875
  969W        W 4687   2.812   0.905   7.465
  970W        W 4688   7.402   6.945   0.816
  971W        W 4689   7.596   8.513   7.526
  972W        W 4690   7.438   2.664   0.468
  973W        W 4691   9.349   6.004   7.886
  974W        W 4692   3.098   9.948   6.989
  975W        W 4693   6.556   4.149   1.179
  976W        W 4694   9.956   1.835   0.920
  977W        W 4695   3.628   2.258   1.207
  978W        W 4696   3.100   8.529   6.979
  979W        W 4697   7.941   0.396   7.456
  980W        W 4698   0.862   5.136   1.876
  981W        W 4699   4.599   8.873   7.961
  982W        W 4700   3.329   8.367   1.698
  983W        W 4701   6.953   3.139   0.894
  984W        W 4702   8.491   7.490   7.782
  985W        W 4703   4.182   7.402   0.915
  986W        W 4704   2.217   9.861   7.048
  987W        W 4705   3.770   8.555   0.336
  988W        W 4706   2.706   5.121   7.407
  989W        W 4707   0.902   9.440   7.974
  990W        W 4708   9.802   9.819   6.908
  991W        W 4709   8.437   0.444   6.980
  992W        W 4710   8.468   7.595   7.028
  993W        W 4711   6.958   3.704   7.884
  994W        W 4712   0.416   4.232   6.835
  995W        W 4713   0.264   1.898   6.503
  996W        W 4714   6.043   9.764   7.897
  997W        W 4715   6.513   7.515   0.405
  998W        W 4716   7.574   7.008   7.473
  999W        W 4717   9.512   6.969   6.852
 1000W        W 4718   1.387   7.927   7.524
 1001W        W 4719   3.231   9.763   0.427
 1002W        W 4720   6.459   6.650   7.934
 1003W        W 4721   7.074   9.039   1.324
 1004W        W 4722   5.708   1.864   1.333
 1005W        W 4723   9.339   3.112   0.262
 1006W        W 4724   5.685   1.747   1.732
 1007W        W 4725   6.124   2.697   7.997
 1008W        W 4726   7.016   8.922   0.241
 1009W        W 4727   4.208   9.937   7.318
 1010W        W 4728   5.188   8.453   0.343
 1011W        W 4729   8.513   8.534   7.003
 1012W        W 4730   8.002   1.348   7.303
 1013W        W 4731   9.023   9.822   0.709
 1014W        W 4732   3.292   2.764   7.038
 1015W        W 4733   1.340   6.918   0.449
 1016W        W 4734   3.767   3.792   0.742
 1017W        W 4735   1.775   7.887   1.726
 1018W        W 4736   5.642   3.725   0.921
 1019W        W 4737   8.402   4.269   6.953
 1020W        W 4738   9.939   1.405   1.196
 1021W        W 4739   6.913   7.558   0.460
 1022W        W 4740   5.561   1.406   1.202
 1023W        W 4741   6.015   4.681   7.044
 1024W        W 4742   6.587   2.693   1.388
 1025W        W 4743   2.793   8.812   7.524
 1026W        W 4744   8.841   1.222   0.357
 1027W        W 4745   2.318   5.006   7.298
 1028W        W 4746   6.149   0.344   0.335
 1029W        W 4747   3.127   9.491   7.876
 1030W        W 4748   9.301   0.878   1.692
 1031W        W 4749   7.018   5.997   7.013
 1032W        W 4750   9.001   3.582   0.415
 1033W        W 4751   2.724   6.182   1.185
 1034W        W 4752   9.874   6.615   7.435
 1035W        W 4753   9.359   5.681   1.391
 1036W        W 4754   3.314   4.668   7.944
 1037W        W 4755   2.261   6.508   1.239
 1038W        W 4756   5.637   0.776   7.996
 1039W        W 4757   2.326   5.550   7.306
 1040W        W 4758   9.021   0.460   1.226
 1041W        W 4759   4.576   2.852   7.955
 1042W        W 4760   3.714   9.361   0.351
 1043W        W 4761   3.151   2.282   7.299
 1044W        W 4762   2.259   2.285   7.339
 1045W        W 4763   6.144   8.972   6.933
 1046W        W 4764   9.877   2.224   0.432
 1047W        W 4765   7.875   8.814   7.868
 1048W        W 4766   3.584   2.703   0.833
 1049W        W 4767   4.200   2.259   0.276
 1050W        W 4768   8.459   7.101   7.436
 1051W        W 4769   7.880   4.156   6.481
 1052W        W 4770   4.116   8.959   6.976
 1053W        W 4771   1.894   2.799   1.729
 1054W        W 4772   9.791   0.309   7.941
 1055W        W 4773   0.415   5.573   6.978
 1056W        W 4774   6.092   9.819   6.834
 1057W        W 4775   2.265   1.412   1.238
 1058W        W 4776   1.215   5.619   7.338
 1059W        W 4777   5.567   9.973   7.054
 1060W        W 4778   2.331   3.654   0.311
 1061W        W 4779   5.040   4.222   0.776
 1062W        W 4780   6.488   9.971   7.313
 1063W        W 4781   3.254   7.086   1.355
 1064W        W 4782   0.438   5.694   0.809
 1065W        W 4783   5.673   7.472   7.861
 1066W        W 4784   9.027   0.748   1.261
 1067W        W 4785   8.066   9.431   1.183
 1068W        W 4786   9.953   5.197   7.853
 1069W        W 4787   5.656   9.421   0.338
 1070W        W 4788   7.403   7.538   6.859
 1071W        W 4789   2.149   0.353   0.764
 1072W        W 4790   8.009   3.603   1.836
 1073W        W 4791   9.290   3.578   6.959
 1074W        W 4792   0.758   1.813   7.874
 1075W        W 4793   4.270   2.729   7.296
 1076W        W 4794   1.866   0.332   1.399
 1077W        W 4795   8.419   8.831   0.437
 1078W        W 4796   1.343   2.162   0.320
 1079W        W 4797   3.619   0.716   1.227
 1080W        W 4798   8.061   0.746   7.802
 1081W        W 4799   6.000   3.264   7.330
 1082W        W 4800   7.894   7.132   6.902
 1083W        W 4801   3.766   4.284   7.366
 1084W        W 4802   3.743   6.564   0.260
 1085W        W 4803   7.429   1.424   1.209
 1086W        W 4804   3.178   1.279   6.880
 1087W        W 4805   6.507   8.402   0.742
 1088W        W 4806   3.247   9.861   0.775
 1089W        W 4807   7.572   9.006   6.903
 1090W        W 4808   2.624   1.245   7.416
 1091W        W 4809   5.133   6.443   6.897
 1092W        W 4810   6.009   2.364   0.849
 1093W        W 4811   8.044   7.887   1.358
 1094W        W 4812   9.911   4.073   0.733
 1095W        W 4813   7.015   8.836   0.802
 1096W        W 4814   6.120   5.574   0.322
 1097W        W 4815   9.501   3.203   1.281
 1098W        W 4816   7.137   9.826   1.266
 1099W        W 4817   6.578   8.048   7.770
 1100W        W 4818   1.388   4.579   7.872
 1101W        W 4819   3.241   4.252   7.853
 1102W        W 4820   5.638   9.911   7.455
 1103W        W 4821   3.637   5.207   0.762
 1104W        W 4822   6.980   6.536   0.414
 1105W        W 4823   1.881   2.761   7.880
 1106W        W 4824   4.164   6.067   1.297
 1107W        W 4825   2.815   9.852   7.313
 1108W        W 4826   2.160   6.988   1.199
 1109W        W 4827   8.423   4.143   7.856
 1110W        W 4828   4.603   4.633   7.517
 1111W        W 4829   2.329   9.493   1.397
 1112W        W 4830   6.157   7.017   1.307
 1113W        W 4831   8.560   0.797   0.808
 1114W        W 4832   7.497   6.039   7.016
 1115W        W 4833   9.804   3.200   1.370
 1116W        W 4834   6.159   3.594   1.189
 1117W        W 4835   5.694   6.129   0.876
 1118W        W 4836   2.737   2.191   7.944
 1119W        W 4837   1.245   4.673   0.847
 1120W        W 4838   5.520   8.472   7.341
 1121W        W 4839   3.287   9.007   7.369
 1122W        W 4840   4.051   8.033   6.953
 1123W        W 4841   0.733   0.760   0.836
 1124W        W 4842   7.436   5.168   7.408
 1125W        W 4843   7.542   5.038   7.949
 1126W        W 4844   1.677   6.452   7.795
 1127W        W 4845   9.379   7.615   1.182
 1128W        W 4846   7.465   8.354   0.238
 1129W        W 4847   8.453   6.147   0.305
 1130W        W 4848   1.740   9.466   7.364
 1131W        W 4849   9.424   7.454   0.291
 1132W        W 4850   7.995   8.846   6.867
 1133W        W 4851   6.105   0.414   1.374
 1134W        W 4852   8.964   9.466   0.432
 1135W        W 4853   3.583   2.638   7.462
 1136W        W 4854   6.934   5.677   7.960
 1137W        W 4855   9.788   4.272   0.378
 1138W        W 4856   4.241   5.060   7.791
 1139W        W 4857   0.803   3.797   1.178
 1140W        W 4858   3.187   4.115   0.809
 1141W        W 4859   4.591   7.086   0.853
 1142W        W 4860   6.934   7.466   1.312
 1143W        W 4861   0.927   6.637   0.769
 1144W        W 4862   3.184   0.782   1.338
 1145W        W 4863   1.833   7.031   0.714
 1146W        W 4864   2.833   7.025   0.824
 1147W        W 4865   7.517   3.161   1.260
 1148W        W 4866   0.793   7.490   1.211
 1149W        W 4867   1.361   4.588   0.373
 1150W        W 4868   6.092   0.821   7.880
 1151W        W 4869   6.059   8.458   0.791
 1152W        W 4870   9.394   6.482   0.795
 1153W        W 4871   9.954   5.502   0.394
 1154W        W 4872   8.031   8.539   1.400
 1155W        W 4873   2.653   9.877   6.981
 1156W        W 4874   3.290   1.351   0.867
 1157W        W 4875   8.505   5.006   0.837
 1158W        W 4876   8.415   4.696   6.967
 1159W        W 4877   6.579   6.950   1.662
 1160W        W 4878   7.547   6.621   0.376
 1161W        W 4879   0.283   3.279   6.520
 1162W        W 4880   1.799   0.887   0.400
 1163W        W 4881   9.408   6.535   0.432
 1164W        W 4882   4.532   1.341   0.416
 1165W        W 4883   0.935   0.786   1.766
 1166W        W 4884   6.486   5.054   0.939
 1167W        W 4885   4.704   2.649   0.405
 1168W        W 4886   4.695   8.045   1.280
 1169W        W 4887   2.828   7.565   7.360
 1170W        W 4888   1.751   8.986   0.742
 1171W        W 4889   4.188   3.581   7.840
 1172W        W 4890   6.959   0.430   7.895
 1173W        W 4891   4.739   2.673   1.241
 1174W        W 4892   7.080   4.625   7.389
 1175W        W 4893   8.450   9.040   7.377
 1176W        W 4894   2.330   1.718   0.869
 1177W        W 4895   8.864   2.739   0.731
 1178W        W 4896   4.194   4.096   7.456
 1179W        W 4897   4.054   8.962   7.805
 1180W        W 4898   9.307   3.583   7.453
 1181W        W 4899   0.938   6.603   7.306
 1182W        W 4900   9.782   2.148   1.187
 1183W        W 4901   9.378   1.855   7.476
 1184W        W 4902   6.630   4.585   0.362
 1185W        W 4903   6.061   8.405   7.940
 1186W        W 4904   9.772   6.125   0.318
 1187W        W 4905   9.982   3.780   1.286
 1188W        W 4906   2.297   8.059   1.355
 1189W        W 4907   9.395   9.942   0.311
 1190W        W 4908   0.442   0.821   0.384
 1191W        W 4909   3.657   2.854   1.351
 1192W        W 4910   8.987   6.607   7.477
 1193W        W 4911   3.301   0.473   0.735
 1194W        W 4912   1.834   1.790   6.861
 1195W        W 4913   5.991   0.777   1.274
 1196W        W 4914   5.489   5.626   1.362
 1197W        W 4915   6.177   4.150   7.424
 1198W        W 4916   7.386   6.596   0.929
 1199W        W 4917   6.661   7.030   0.313
 1200W        W 4918   4.618   4.145   6.944
 1201W        W 4919   9.890   4.169   7.412
 1202W        W 4920   9.309   0.258   7.372
 1203W        W 4921   9.439   7.524   6.937
 1204W        W 4922   8.429   8.015   7.007
 1205W        W 4923   6.521   4.058   0.793
 1206W        W 4924   3.608   6.655   7.357
 1207W        W 4925   6.014   7.574   7.389
 1208W        W 4926   5.160   5.586   0.773
 1209W        W 4927   8.057   3.231   1.310
 1210W        W 4928   3.286   9.302   1.368
 1211W        W 4929   0.300   3.583   7.033
 1212W        W 4930   5.606   4.682   1.666
 1213W        W 4931   0.343   3.759   1.254
 1214W        W 4932   0.434   8.032   0.714
 1215W        W 4933   8.838   9.365   6.874
 1216W        W 4934   1.417   8.443   7.295
 1217W        W 4935   7.497   1.843   1.222
 1218W        W 4936   3.617   4.712   6.871
 1219W        W 4937   6.446   8.835   0.791
 1220W        W 4938   5.036   1.387   6.927
 1221W        W 4939   7.459   8.507   6.901
 1222W        W 4940   6.448   6.066   7.985
 1223W        W 4941   1.904   5.025   0.356
 1224W        W 4942   3.326   8.348   0.369
 1225W        W 4943   3.690   8.502   0.830
 1226W        W 4944   7.077   1.343   7.930
 1227W        W 4945   3.608   1.885   1.407
 1228W        W 4946   0.913   6.155   6.892
 1229W        W 4947   4.576   4.713   0.258
 1230W        W 4948   0.420   1.893   0.733
 1231W        W 4949   1.858   2.750   0.357
 1232W        W 4950   2.640   4.232   7.398
 1233W        W 4951   4.244   7.499   0.457
 1234W        W 4952   3.664   0.894   7.501
 1235W        W 4953   2.183   4.213   7.434
 1236W        W 4954   7.929   6.470   7.048
 1237W        W 4955   6.457   0.909   7.800
 1238W        W 4956   6.190   1.700   0.373
 1239W        W 4957   0.794   1.280   0.426
 1240W        W 4958   9.931   4.157   7.866
 1241W        W 4959   2.683   5.175   7.820
 1242W        W 4960   7.420   8.975   0.395
 1243W        W 4961   9.892   0.914   0.871
 1244W        W 4962   8.520   7.958   7.428
 1245W        W 4963   8.811   3.592   7.386
 1246W        W 4964   3.287   8.854   6.456
 1247W        W 4965   2.790   2.823   7.801
 1248W        W 4966   4.621   4.625   7.865
 1249W        W 4967   5.096   7.396   1.371
 1250W        W 4968   1.303   3.294   7.337
 1251W        W 4969   0.428   7.889   1.300
 1252W        W 4970   6.035   5.645   7.334
 1253W        W 4971   8.506   9.870   7.814
 1254W        W 4972   9.019   7.932   7.953
 1255W        W 4973   0.314   1.781   1.360
 1256W        W 4974   5.501   3.106   7.857
 1257W        W 4975   6.106   0.718   7.520
 1258W        W 4976   1.276   1.256   1.189
 1259W        W 4977   9.837   6.163   7.497
 1260W        W 4978   1.879   5.706   0.400
 1261W        W 4979   7.477   0.386   0.452
 1262W        W 4980   7.579   3.600   7.058
 1263W        W 4981   4.671   9.332   7.826
 1264W        W 4982   9.343   7.956   0.713
 1265W        W 4983   5.158   9.430   6.911
 1266W        W 4984   2.340   3.219   1.789
 1267W        W 4985   0.336   4.158   7.488
 1268W        W 4986   3.115   9.017   7.947
 1269W        W 4987   2.227   7.919   0.249
 1270W        W 4988   7.125   7.088   1.329
 1271W        W 4989   2.620   8.038   6.866
 1272W        W 4990   2.266   1.672   7.471
 1273W        W 4991   8.945   4.198   7.786
 1274W        W 4992   2.852   0.932   0.713
 1275W        W 4993   4.682   6.048   0.759
 1276W        W 4994   3.774   3.733   6.928
 1277W        W 4995   9.322   0.910   7.490
 1278W        W 4996   8.490   8.053   1.232
 1279W        W 4997   2.721   6.076   0.412
 1280W        W 4998   5.678   0.283   0.878
 1281W        W 4999   9.352   2.831   1.267
 1282W        W 5000   8.353   3.098   6.580
 1283W        W 5001   3.201   2.294   1.230
 1284W        W 5002   6.526   2.731   0.788
 1285W        W 5003   0.817   3.238   6.917
 1286W        W 5004   3.285   5.622   0.738
 1287W        W 5005   7.120   2.300   6.553
 1288W        W 5006   7.392   6.146   1.400
 1289W        W 5007   7.902   5.623   7.528
 1290W        W 5008   3.720   5.173   0.381
 1291W        W 5009   1.886   6.570   1.192
 1292W        W 5010   5.170   5.213   0.753
 1293W        W 5011   2.722   4.232   0.777
 1294W        W 5012   2.152   7.475   0.757
 1295W        W 5013   9.430   6.998   7.835
 1296W        W 5014   1.856   3.737   0.336
 1297W        W 5015   8.821   7.860   6.913
 1298W        W 5016   1.204   4.729   6.987
 1299W        W 5017   5.201   2.209   6.878
 1300W        W 5018   8.937   5.186   6.853
 1301W        W 5019   0.475   1.801   0.340
 1302W        W 5020   8.030   8.083   7.025
 1303W        W 5021   2.664   9.826   0.287
 1304W        W 5022   4.648   4.273   0.259
 1305W        W 5023   0.365   0.385   6.860
 1306W        W 5024   6.066   1.833   0.747
 1307W        W 5025   6.625   3.599   0.713
 1308W        W 5026   5.563   8.021   7.918
 1309W        W 5027   0.311   5.541   1.257
 1310W        W 5028   4.689   1.667   0.393
 1311W        W 5029   0.308   5.131   1.371
 1312W        W 5030   7.105   7.387   7.003
 1313W        W 5031   7.596   6.058   0.450
 1314W        W 5032   1.264   0.435   0.450
 1315W        W 5033   6.510   0.923   0.779
 1316W        W 5034   3.305   6.458   7.424
 1317W        W 5035   2.178   8.957   7.035
 1318W        W 5036   4.220   7.985   1.208
 1319W        W 5037   8.350   1.677   7.974
 1320W        W 5038   8.938   1.232   0.830
 1321W        W 5039   3.670   4.265   6.940
 1322W        W 5040   9.477   9.434   1.337
 1323W        W 5041   0.745   9.437   1.389
 1324W        W 5042   3.700   8.441   1.365
 1325W        W 5043   9.876   4.760   0.759
 1326W        W 5044   5.615   6.082   1.695
 1327W        W 5045   7.043   6.952   6.923
 1328W        W 5046   0.318   5.510   7.894
 1329W        W 5047   5.134   1.342   1.246
 1330W        W 5048   9.393   8.030   6.970
 1331W        W 5049   9.006   8.088   1.370
 1332W        W 5050   8.924   7.517   0.723
 1333W        W 5051   0.844   3.758   6.943
 1334W        W 5052   0.325   7.398   6.958
 1335W        W 5053   7.613   7.887   1.215
 1336W        W 5054   6.644   2.316   1.337
 1337W        W 5055   9.469   4.270   7.417
 1338W        W 5056   5.154   1.206   7.806
 1339W        W 5057   7.047   4.747   1.293
 1340W        W 5058   0.430   1.672   7.320
 1341W        W 5059   6.984   9.009   7.976
 1342W        W 5060   9.348   5.981   6.989
 1343W        W 5061   4.060   1.242   0.367
 1344W        W 5062   6.602   9.030   6.966
 1345W        W 5063   4.052   4.759   1.364
 1346W        W 5064   9.494   8.975   0.918
 1347W        W 5065   3.097   9.875   7.773
 1348W        W 5066   0.772   1.874   7.403
 1349W        W 5067   8.969   1.883   1.292
 1350W        W 5068   8.503   2.311   7.404
 1351W        W 5069   2.349   0.783   7.933
 1352W        W 5070   7.883   6.034   6.884
 1353W        W 5071   9.805   8.477   0.869
 1354W        W 5072   0.246   1.693   7.034
 1355W        W 5073   0.840   1.267   7.300
 1356W        W 5074   9.304   6.146   0.772
 1357W        W 5075   7.124   3.187   7.882
 1358W        W 5076   2.337   2.368   7.839
 1359W        W 5077   0.872   3.602   7.431
 1360W        W 5078   2.819   8.823   0.804
 1361W        W 5079   2.241   4.056   7.894
 1362W        W 5080   5.166   5.968   0.896
 1363W        W 5081   2.678   3.777   7.331
 1364W        W 5082   3.682   5.509   0.451
 1365W        W 5083   8.926   5.703   0.268
 1366W        W 5084   3.160   3.633   1.222
 1367W        W 5085   2.718   4.073   0.350
 1368W        W 5086   1.197   7.524   0.875
 1369W        W 5087   6.189   2.144   1.294
 1370W        W 5088   7.020   4.081   0.424
 1371W        W 5089   7.059   4.146   7.974
 1372W        W 5090   7.448   5.180   1.242
 1373W        W 5091   3.145   1.363   1.335
 1374W        W 5092   4.738   5.584   0.381
 1375W        W 5093   1.278   9.496   0.939
 1376W        W 5094   0.423   2.775   7.894
 1377W        W 5095   5.162   4.703   1.399
 1378W        W 5096   8.996   9.328   1.360
 1379W        W 5097   3.761   5.708   7.384
 1380W        W 5098   9.497   5.169   6.825
 1381W        W 5099   4.109   0.454   6.913
 1382W        W 5100   1.743   6.061   0.908
 1383W        W 5101   6.909   1.327   1.378
 1384W        W 5102   8.949   1.695   0.787
 1385W        W 5103   8.569   4.556   7.828
 1386W        W 5104   9.776   9.372   0.733
 1387W        W 5105   8.016   5.185   6.952
 1388W        W 5106   1.335   0.903   0.780
 1389W        W 5107   7.513   9.490   7.485
 1390W        W 5108   4.094   6.954   7.043
 1391W        W 5109   2.642   3.223   1.311
 1392W        W 5110   8.935   6.116   7.376
 1393W        W 5111   0.764   8.546   7.861
 1394W        W 5112   3.592   4.048   7.778
 1395W        W 5113   6.472   1.338   0.453
 1396W        W 5114   4.097   7.009   7.853
 1397W        W 5115   2.369   1.790   7.962
 1398W        W 5116   9.900   7.969   1.379
 1399W        W 5117   4.591   4.607   0.859
 1400W        W 5118   1.212   0.876   7.815
 1401W        W 5119   4.252   8.438   7.953
 1402W        W 5120   7.123   8.450   0.874
 1403W        W 5121   9.350   1.857   1.760
 1404W        W 5122   4.690   9.981   1.275
 1405W        W 5123   1.347   7.070   7.783
 1406W        W 5124   8.906   8.882   0.273
 1407W        W 5125   5.974   6.012   0.358
 1408W        W 5126   7.529   7.002   1.357
 1409W        W 5127   6.186   7.451   7.819
 1410W        W 5128   2.632   5.138   6.964
 1411W        W 5129   9.816   2.252   7.440
 1412W        W 5130   4.737   0.865   0.861
 1413W        W 5131   9.290   4.252   0.295
 1414W        W 5132   9.364   1.788   7.019
 1415W        W 5133   8.919   3.300   7.819
 1416W        W 5134   7.605   5.048   6.852
 1417W        W 5135   4.091   2.676   1.331
 1418W        W 5136   5.234   5.036   0.408
 1419W        W 5137   5.165   7.112   1.352
 1420W        W 5138   4.638   2.788   6.988
 1421W        W 5139   8.416   2.295   7.045
 1422W        W 5140   8.372   1.770   0.437
 1423W        W 5141   2.240   4.594   7.528
 1424W        W 5142   5.185   3.602   0.365
 1425W        W 5143   9.998   0.952   0.340
 1426W        W 5144   0.819   8.460   1.294
 1427W        W 5145   1.791   2.740   1.274
 1428W        W 5146   9.827   8.951   1.218
 1429W        W 5147   3.329   8.957   0.735
 1430W        W 5148   4.667   8.091   0.761
 1431W        W 5149   8.081   3.647   7.358
 1432W        W 5150   1.719   4.679   7.509
 1433W        W 5151   5.647   3.630   6.893
 1434W        W 5152   2.704   5.234   1.204
 1435W        W 5153   3.660   6.666   7.960
 1436W        W 5154   5.557   6.660   6.975
 1437W        W 5155   9.019   5.645   7.025
 1438W        W 5156   6.987   8.448   1.823
 1439W        W 5157   7.985   3.574   7.912
 1440W        W 5158   4.620   8.995   7.450
 1441W        W 5159   8.384   0.840   6.923
 1442W        W 5160   1.308   2.689   0.710
 1443W        W 5161   4.587   3.098   0.459
 1444W        W 5162   3.224   2.821   1.376
 1445W        W 5163   4.077   8.338   1.247
 1446W        W 5164   8.852   4.093   0.423
 1447W        W 5165   9.847   3.267   0.384
 1448W        W 5166   9.992   8.010   0.731
 1449W        W 5167   3.690   9.869   0.860
 1450W        W 5168   3.573   8.981   1.299
 1451W        W 5169   1.723   0.736   7.474
 1452W        W 5170   6.910   7.570   0.940
 1453W        W 5171   7.139   9.418   0.882
 1454W        W 5172   0.320   3.764   7.872
 1455W        W 5173   3.328   4.740   7.297
 1456W        W 5174   9.397   3.196   0.778
 1457W        W 5175   1.357   4.194   0.297
 1458W        W 5176   3.778   2.746   7.820
 1459W        W 5177   3.275   7.475   0.364
 1460W        W 5178   0.430   5.558   0.434
 1461W        W 5179   5.488   2.638   6.951
 1462W        W 5180   2.778   8.510   7.386
 1463W        W 5181   5.503   7.504   1.346
 1464W        W 5182   8.959   7.571   0.241
 1465W        W 5183   0.368   8.403   7.936
 1466W        W 5184   0.370   1.397   0.707
 1467W        W 5185   9.435   9.779   0.743
 1468W        W 5186   0.362   4.209   7.857
 1469W        W 5187   0.429   3.803   0.849
 1470W        W 5188   1.703   2.312   6.979
 1471W        W 5189   8.024   0.392   0.745
 1472W        W 5190   3.139   6.138   7.996
 1473W        W 5191   7.453   4.085   7.885
 1474W        W 5192   8.430   8.445   0.787
 1475W        W 5193   6.175   3.796   0.907
 1476W        W 5194   9.304   4.707   7.889
 1477W        W 5195   6.175   8.986   7.445
 1478W        W 5196   2.220   4.712   6.869
 1479W        W 5197   9.815   6.493   0.726
 1480W        W 5198   7.483   9.925   0.405
 1481W        W 5199   8.494   3.697   1.265
 1482W        W 5200   5.710   6.555   0.307
 1483W        W 5201   7.108   6.594   7.438
 1484W        W 5202   0.345   4.554   0.387
 1485W        W 5203   6.591   3.756   7.331
 1486W        W 5204   6.630   9.808   0.762
 1487W        W 5205   8.527   1.863   0.867
 1488W        W 5206   7.035   4.625   6.852
 1489W        W 5207   4.067   4.753   0.404
 1490W        W 5208   3.194   7.991   0.303
 1491W        W 5209   5.695   5.003   6.973
 1492W        W 5210   5.669   0.846   0.720
 1493W        W 5211   2.374   2.157   0.799
 1494W        W 5212   4.084   3.255   0.347
 1495W        W 5213   3.749   3.628   7.957
 1496W        W 5214   1.387   7.858   0.333
 1497W        W 5215   9.825   9.503   0.330
 1498W        W 5216   3.734   9.878   1.328
 1499W        W 5217   0.795   7.965   1.769
 1500W        W 5218   9.876   8.438   7.525
 1501W        W 5219   4.643   2.630   0.772
 1502W        W 5220   1.382   5.031   1.342
 1503W        W 5221   6.105   7.927   7.365
 1504W        W 5222   2.247   9.027   0.747
 1505W        W 5223   9.510   4.598   1.697
 1506W        W 5224   3.217   1.298   6.491
 1507W        W 5225   3.138   0.721   0.376
 1508W        W 5226   7.888   4.124   1.300
 1509W        W 5227   9.339   3.598   7.790
 1510W        W 5228   6.534   8.981   7.926
 1511W        W 5229   2.210   6.085   7.781
 1512W        W 5230   6.977   0.385   1.769
 1513W        W 5231   6.978   8.547   0.261
 1514W        W 5232   0.431   7.435   7.906
 1515W        W 5233   5.998   9.859   7.360
 1516W        W 5234   0.311   2.659   0.780
 1517W        W 5235   5.109   7.935   7.514
 1518W        W 5236   8.971   0.415   0.465
 1519W        W 5237   1.802   1.401   7.882
 1520W        W 5238   9.435   0.400   7.926
 1521W        W 5239   6.660   0.824   1.263
 1522W        W 5240   2.671   4.190   1.728
 1523W        W 5241   3.703   1.755   0.296
 1524W        W 5242   9.842   9.843   1.395
 1525W        W 5243   4.253   1.222   1.311
 1526W        W 5244   6.560   2.285   6.940
 1527W        W 5245   7.099   0.746   1.648
 1528W        W 5246   9.940   3.238   7.987
 1529W        W 5247   7.546   8.829   0.762
 1530W        W 5248   4.593   2.243   7.423
 1531W        W 5249   1.709   4.169   1.272
 1532W        W 5250   5.713   3.725   7.521
 1533W        W 5251   9.995   2.701   0.752
 1534W        W 5252   6.189   5.007   7.309
 1535W        W 5253   7.024   4.086   0.815
 1536W        W 5254   1.196   7.583   7.870
 1537W        W 5255   4.558   3.276   6.940
 1538W        W 5256   9.903   2.252   7.926
 1539W        W 5257   7.073   6.925   0.375
 1540W        W 5258   1.309   6.953   7.039
 1541W        W 5259   6.562   3.670   6.866
 1542W        W 5260   5.554   9.348   1.319
 1543W        W 5261   9.298   0.342   0.456
 1544W        W 5262   3.303   5.520   7.414
 1545W        W 5263   3.771   6.037   0.268
 1546W        W 5264   6.531   5.619   1.408
 1547W        W 5265   8.049   0.780   6.834
 1548W        W 5266   5.663   4.215   0.828
 1549W        W 5267   1.201   5.212   7.970
 1550W        W 5268   1.872   4.125   0.431
 1551W        W 5269   1.876   9.393   1.180
 1552W        W 5270   3.305   6.532   0.262
 1553W        W 5271   7.998   4.570   7.027
 1554W        W 5272   4.572   4.099   0.713
 1555W        W 5273   8.989   1.786   6.894
 1556W        W 5274   8.530   1.319   6.940
 1557W        W 5275   8.519   8.502   7.831
 1558W        W 5276   2.356   2.720   7.301
 1559W        W 5277   8.386   6.000   6.889
 1560W        W 5278   3.321   5.570   0.434
 1561W        W 5279   7.470   9.800   7.517
 1562W        W 5280   3.768   2.308   0.925
 1563W        W 5281   7.078   3.212   1.253
 1564W        W 5282   0.412   6.014   7.295
 1565W        W 5283   5.229   7.870   1.365
 1566W        W 5284   9.291   9.924   6.518
 1567W        W 5285   5.650   9.030   7.035
 1568W        W 5286   1.859   7.542   0.733
 1569W        W 5287   2.283   6.181   7.439
 1570W        W 5288   4.579   5.677   7.485
 1571W        W 5289   2.227   0.729   7.431
 1572W        W 5290   0.944   1.799   1.209
 1573W        W 5291   8.925   2.815   0.396
 1574W        W 5292   3.792   9.815   7.833
 1575W        W 5293   4.700   7.922   7.904
 1576W        W 5294   3.194   3.270   1.219
 1577W        W 5295   7.925   8.538   7.047
 1578W        W 5296   2.150   9.289   6.929
 1579W        W 5297   0.724   5.084   0.788
 1580W        W 5298   8.502   2.365   0.793
 1581W        W 5299   7.544   7.609   1.210
 1582W        W 5300   4.586   8.568   0.829
 1583W        W 5301   0.390   8.954   1.194
 1584W        W 5302   5.486   1.309   0.768
 1585W        W 5303   4.166   3.299   0.715
 1586W        W 5304   6.044   3.642   0.430
 1587W        W 5305   3.587   2.374   7.780
 1588W        W 5306   8.865   2.368   6.985
 1589W        W 5307   9.861   5.082   0.286
 1590W        W 5308   3.239   0.347   7.813
 1591W        W 5309   0.382   2.847   1.282
 1592W        W 5310   4.535   6.150   0.386
 1593W        W 5311   6.512   0.278   7.422
 1594W        W 5312   7.509   0.421   0.931
 1595W        W 5313   3.137   0.290   7.403
 1596W        W 5314   4.050   3.155   6.936
 1597W        W 5315   0.863   8.975   7.862
 1598W        W 5316   0.715   8.514   7.029
 1599W        W 5317   1.257   5.629   1.259
 1600W        W 5318   5.086   6.127   7.903
 1601W        W 5319   8.027   7.473   0.375
 1602W        W 5320   0.767   3.154   7.485
 1603W        W 5321   1.403   1.701   0.792
 1604W        W 5322   1.284   3.612   1.238
 1605W        W 5323   2.656   7.883   7.908
 1606W        W 5324   4.133   2.372   6.850
 1607W        W 5325   5.001   8.410   7.057
 1608W        W 5326   3.664   3.198   6.368
 1609W        W 5327   3.691   6.979   1.842
 1610W        W 5328   8.088   7.419   1.345
 1611W        W 5329   5.185   7.965   0.456
 1612W        W 5330   7.612   2.638   6.993
 1613W        W 5331   4.249   5.637   0.313
 1614W        W 5332   7.020   0.850   0.847
 1615W        W 5333   2.300   6.175   0.349
 1616W        W 5334   3.270   3.213   7.982
 1617W        W 5335   7.884   1.240   6.937
 1618W        W 5336   2.784   1.206   0.358
 1619W        W 5337   2.239   4.659   0.447
 1620W        W 5338   3.140   3.789   0.409
 1621W        W 5339   6.948   8.072   6.845
 1622W        W 5340   7.054   1.830   0.456
 1623W        W 5341   5.140   2.214   0.380
 1624W        W 5342   4.701   1.794   7.980
 1625W        W 5343   4.193   8.023   7.524
 1626W        W 5344   4.215   2.364   7.912
 1627W        W 5345   3.646   4.729   1.209
 1628W        W 5346   8.452   5.564   7.384
 1629W        W 5347   6.045   7.037   0.401
 1630W        W 5348   5.641   0.429   6.843
 1631W        W 5349   4.563   8.403   7.510
 1632W        W 5350   6.140   2.620   6.973
 1633W        W 5351   6.577   9.312   0.936
 1634W        W 5352   6.535   9.799   7.854
 1635W        W 5353   2.708   2.786   1.396
 1636W        W 5354   3.674   0.265   7.872
 1637W        W 5355   3.695   4.164   1.229
 1638W        W 5356   0.858   9.384   0.363
 1639W        W 5357   0.256   8.495   1.285
 1640W        W 5358   5.516   4.284   0.290
 1641W        W 5359   5.529   3.689   1.861
 1642W        W 5360   3.273   8.878   0.303
 1643W        W 5361   6.071   7.606   0.470
 1644W        W 5362   5.176   2.234   7.417
 1645W        W 5363   8.850   9.042   7.833
 1646W        W 5364   4.131   5.687   7.335
 1647W        W 5365   6.456   7.079   7.855
 1648W        W 5366   2.797   3.744   0.319
 1649W        W 5367   0.262   9.987   6.944
 1650W        W 5368   1.370   9.438   7.023
 1651W        W 5369   6.568   1.197   7.903
 1652W        W 5370   8.562   0.903   7.792
 1653W        W 5371   9.340   4.050   1.249
 1654W        W 5372   4.121   4.161   6.566
 1655W        W 5373   5.698   7.863   0.727
 1656W        W 5374   0.365   2.216   0.715
 1657W        W 5375   0.432   9.479   6.829
 1658W        W 5376   6.997   8.050   1.285
 1659W        W 5377   8.887   2.348   7.476
 1660W        W 5378   4.608   7.541   7.835
 1661W        W 5379   1.294   0.398   6.918
 1662W        W 5380   5.656   1.221   7.455
 1663W        W 5381   0.720   6.175   0.257
 1664W        W 5382   3.209   6.033   7.405
 1665W        W 5383   7.873   3.319   7.030
 1666W        W 5384   8.015   7.503   0.742
 1667W        W 5385   0.861   2.797   7.798
 1668W        W 5386   8.928   7.027   7.876
 1669W        W 5387   8.833   7.114   7.324
 1670W        W 5388   2.352   6.473   0.360
 1671W        W 5389   8.431   7.076   0.713
 1672W        W 5390   4.595   4.680   1.275
 1673W        W 5391   1.784   6.026   1.744
 1674W        W 5392   4.730   1.835   6.861
 1675W        W 5393   7.860   1.243   0.396
 1676W        W 5394   0.349   7.014   0.717
 1677W        W 5395   9.892   9.033   6.987
 1678W        W 5396   1.231   4.055   7.307
 1679W        W 5397   0.263   5.210   0.894
 1680W        W 5398   5.701   6.094   1.393
 1681W        W 5399   5.632   6.995   0.369
 1682W        W 5400   4.600   6.647   1.253
 1683W        W 5401   1.752   8.885   7.827
 1684W        W 5402   8.982   1.799   7.347
 1685W        W 5403   0.873   9.452   7.014
 1686W        W 5404   7.982   6.911   7.441
 1687W        W 5405   3.674   9.388   0.826
 1688W        W 5406   1.315   7.857   6.877
 1689W        W 5407   3.281   3.312   0.835
 1690W        W 5408   7.877   1.844   0.283
 1691W        W 5409   5.488   8.505   0.398
 1692W        W 5410   3.154   6.104   7.037
 1693W        W 5411   8.396   5.681   0.881
 1694W        W 5412   3.154   8.505   0.853
 1695W        W 5413   8.015   1.408   0.774
 1696W        W 5414   9.996   3.575   0.833
 1697W        W 5415   3.216   8.941   7.044
 1698W        W 5416   5.575   6.459   0.707
 1699W        W 5417   0.359   9.773   7.808
 1700W        W 5418   6.537   8.439   7.893
 1701W        W 5419   7.466   8.997   1.254
 1702W        W 5420   7.609   4.226   7.310
 1703W        W 5421   2.318   5.583   0.459
 1704W        W 5422   7.002   8.011   0.786
 1705W        W 5423   5.237   1.192   7.308
 1706W        W 5424   1.287   5.693   7.026
 1707W        W 5425   8.568   9.923   0.714
 1708W        W 5426   2.255   3.768   1.195
 1709W        W 5427   6.019   9.931   1.266
 1710W        W 5428   9.459   0.715   7.873
 1711W        W 5429   5.024   3.637   6.931
 1712W        W 5430   2.148   0.320   1.185
 1713W        W 5431   7.586   1.687   7.038
 1714W        W 5432   6.504   5.663   7.852
 1715W        W 5433   9.420   9.349   7.307
 1716W        W 5434   6.982   6.163   1.202
 1717W        W 5435   8.390   3.721   7.975
 1718W        W 5436   9.847   7.863   7.005
 1719W        W 5437   8.571   3.212   1.307
 1720W        W 5438   8.861   7.426   6.961
 1721W        W 5439   1.231   3.110   0.928
 1722W        W 5440   6.664   5.086   7.839
 1723W        W 5441   1.795   1.786   1.291
 1724W        W 5442   9.869   7.041   7.490
 1725W        W 5443   4.646   3.216   7.894
 1726W        W 5444   7.458   3.645   7.899
 1727W        W 5445   9.384   9.462   6.382
 1728W        W 5446   2.622   1.281   0.778
 1729W        W 5447   9.840   2.657   6.932
 1730W        W 5448   9.366   5.226   7.528
 1731W        W 5449   8.081   5.032   0.820
 1732W        W 5450   8.447   5.510   1.336
 1733W        W 5451   2.259   8.083   7.522
 1734W        W 5452   1.748   0.793   0.929
 1735W        W 5453   4.168   1.786   7.393
 1736W        W 5454   2.673   8.391   7.938
 1737W        W 5455   6.449   8.012   7.349
 1738W        W 5456   8.414   2.670   6.854
 1739W        W 5457   8.944   9.963   7.998
 1740W        W 5458   3.120   5.188   7.938
 1741W        W 5459   9.413   0.347   1.734
 1742W        W 5460   6.505   3.258   6.866
 1743W        W 5461   2.830   7.012   1.294
 1744W        W 5462   3.271   9.330   0.334
 1745W        W 5463   0.308   6.451   1.177
 1746W        W 5464   0.845   7.858   0.799
 1747W        W 5465   1.832   3.708   7.385
 1748W        W 5466   6.599   8.855   7.509
 1749W        W 5467   0.342   1.198   6.985
 1750W        W 5468   9.855   9.855   0.760
 1751W        W 5469   6.589   0.449   7.996
 1752W        W 5470   2.837   3.770   6.981
 1753W        W 5471   7.564   9.463   1.237
 1754W        W 5472   5.666   4.614   1.378
 1755W        W 5473   9.384   7.991   7.390
 1756W        W 5474   7.040   7.509   7.306
 1757W        W 5475   7.427   7.941   7.308
 1758W        W 5476   1.747   8.950   0.402
 1759W        W 5477   4.110   4.071   7.952
 1760W        W 5478   1.852   6.063   6.883
 1761W        W 5479   8.437   4.718   1.699
 1762W        W 5480   1.678   0.379   1.681
 1763W        W 5481   0.869   8.866   6.522
 1764W        W 5482   3.149   2.273   7.773
 1765W        W 5483   1.897   0.257   7.855
 1766W        W 5484   3.631   8.018   0.312
 1767W        W 5485   0.755   3.249   7.990
 1768W        W 5486   2.709   7.489   1.334
 1769W        W 5487   2.373   3.293   7.916
 1770W        W 5488   0.820   8.365   6.477
 1771W        W 5489   1.823   5.162   0.914
 1772W        W 5490   8.460   5.016   6.960
 1773W        W 5491   5.977   2.369   7.522
 1774W        W 5492   8.012   8.057   7.998
 1775W        W 5493   6.623   6.183   7.037
 1776W        W 5494   0.376   0.249   0.372
 1777W        W 5495   8.893   5.558   7.367
 1778W        W 5496   9.805   3.649   7.986
 1779W        W 5497   2.380   3.182   0.457
 1780W        W 5498   5.706   3.805   0.284
 1781W        W 5499   2.794   2.763   6.863
 1782W        W 5500   1.361   9.864   0.257
 1783W        W 5501   0.769   5.499   7.837
 1784W        W 5502   4.180   1.312   7.297
 1785W        W 5503   5.991   4.246   6.842
 1786W        W 5504   6.961   0.396   1.180
 1787W        W 5505   2.821   4.761   0.237
 1788W        W 5506   3.114   1.875   7.968
 1789W        W 5507   3.775   1.278   7.862
 1790W        W 5508   6.932   0.915   6.885
 1791W        W 5509   3.659   5.225   7.364
 1792W        W 5510   3.239   5.150   1.322
 1793W        W 5511   8.016   4.196   0.437
 1794W        W 5512   1.367   8.083   0.756
 1795W        W 5513   3.173   2.255   0.742
 1796W        W 5514   8.930   7.930   0.912
 1797W        W 5515   2.206   5.222   0.915
 1798W        W 5516   6.526   1.679   0.895
 1799W        W 5517   7.928   0.764   0.867
 1800W        W 5518   6.431   4.578   7.341
 1801W        W 5519   5.973   8.563   1.235
 1802W        W 5520   5.648   5.070   7.922
 1803W        W 5521   8.074   8.881   0.815
 1804W        W 5522   7.143   5.548   1.381
 1805W        W 5523   1.714   9.816   0.256
 1806W        W 5524   9.954   4.723   0.415
 1807W        W 5525   9.405   6.930   7.426
 1808W        W 5526   6.934   9.491   6.928
 1809W        W 5527   3.236   8.563   7.972
 1810W        W 5528   6.532   9.358   6.553
 1811W        W 5529   8.473   7.436   7.479
 1812W        W 5530   8.073   4.266   7.986
 1813W        W 5531   6.614   4.755   7.014
 1814W        W 5532   7.411   9.967   7.019
 1815W        W 5533   7.082   1.846   1.200
 1816W        W 5534   2.170   0.933   1.259
 1817W        W 5535   5.966   9.475   7.508
 1818W        W 5536   6.605   5.599   6.977
 1819W        W 5537   5.711   5.646   7.490
 1820W        W 5538   7.876   8.810   0.416
 1821W        W 5539   0.803   4.245   0.933
 1822W        W 5540   9.876   5.978   7.864
 1823W        W 5541   0.362   3.281   7.508
 1824W        W 5542   9.839   7.058   6.847
 1825W        W 5543   8.929   0.270   6.993
 1826W        W 5544   9.001   9.870   6.991
 1827W        W 5545   6.053   8.841   0.715
 1828W        W 5546   9.296   8.365   7.941
 1829W        W 5547   6.435   8.063   1.185
 1830W        W 5548   6.144   5.589   7.850
 1831W        W 5549   8.981   8.353   0.280
 1832W        W 5550   5.650   3.139   7.327
 1833W        W 5551   5.660   5.492   0.934
 1834W        W 5552   7.907   5.586   6.417
 1835W        W 5553   7.884   5.116   7.946
 1836W        W 5554   5.673   3.800   1.212
 1837W        W 5555   8.818   8.073   0.387
 1838W        W 5556   7.926   6.052   0.862
 1839W        W 5557   2.762   7.063   7.884
 1840W        W 5558   9.482   4.554   1.298
 1841W        W 5559   7.395   6.158   7.849
 1842W        W 5560   4.088   7.605   7.804
 1843W        W 5561   2.356   4.567   7.774
 1844W        W 5562   0.925   9.014   0.391
 1845W        W 5563   8.335   8.539   7.512
 1846W        W 5564   8.381   8.475   1.712
 1847W        W 5565   3.220   0.911   0.707
 1848W        W 5566   3.259   0.295   0.409
 1849W        W 5567   7.517   6.999   7.000
 1850W        W 5568   8.825   4.672   7.842
 1851W        W 5569   8.873   2.774   7.524
 1852W        W 5570   2.830   1.799   0.331
 1853W        W 5571   7.070   7.048   7.328
 1854W        W 5572   7.553   7.015   0.410
 1855W        W 5573   3.655   6.973   7.962
 1856W        W 5574   3.251   9.347   6.902
 1857W        W 5575   6.658   2.283   0.451
 1858W        W 5576   3.594   3.745   0.432
 1859W        W 5577   4.124   1.754   0.908
 1860W        W 5578   6.921   8.341   1.258
 1861W        W 5579   3.208   1.364   0.303
 1862W        W 5580   1.362   9.040   7.516
 1863W        W 5581   3.332   5.615   1.342
 1864W        W 5582   1.898   4.632   6.825
 1865W        W 5583   5.974   6.580   7.920
 1866W        W 5584   6.582   1.681   1.188
 1867W        W 5585   3.099   1.721   7.338
 1868W        W 5586   2.345   4.578   0.920
 1869W        W 5587   2.676   7.117   6.404
 1870W        W 5588   4.696   0.800   1.340
 1871W        W 5589   5.217   1.688   0.824
 1872W        W 5590   7.140   4.246   7.307
 1873W        W 5591   9.313   6.923   1.182
 1874W        W 5592   9.300   2.737   0.279
 1875W        W 5593   9.477   0.413   1.388
 1876W        W 5594   7.577   1.804   0.909
 1877W        W 5595   4.120   7.548   7.418
 1878W        W 5596   0.368   2.373   7.379
 1879W        W 5597   5.704   2.805   7.792
 1880W        W 5598   4.258   7.888   0.276
 1881W        W 5599   7.528   0.376   1.412
 1882W        W 5600   6.526   4.213   0.463
 1883W        W 5601   5.525   0.294   1.323
 1884W        W 5602   7.582   7.949   0.822
 1885W        W 5603   8.394   0.749   0.318
 1886W        W 5604   5.701   4.555   7.838
 1887W        W 5605   9.971   8.864   7.940
 1888W        W 5606   6.473   7.914   0.455
 1889W        W 5607   3.209   4.736   1.372
 1890W        W 5608   9.928   4.543   7.008
 1891W        W 5609   7.612   4.600   1.291
 1892W        W 5610   7.969   6.092   6.575
 1893W        W 5611   5.185   6.967   6.936
 1894W        W 5612   6.162   1.411   1.383
 1895W        W 5613   0.405   0.422   7.453
 1896W        W 5614   5.073   5.182   6.838
 1897W        W 5615   2.788   3.152   0.307
 1898W        W 5616   4.053   0.810   0.387
 1899W        W 5617   5.669   7.584   6.830
 1900W        W 5618   5.501   5.586   7.784
 1901W        W 5619   5.669   7.898   6.832
 1902W        W 5620   8.047   4.058   7.446
 1903W        W 5621   6.975   6.032   7.432
 1904W        W 5622   5.480   4.097   7.050
 1905W        W 5623   3.304   2.799   7.325
 1906W        W 5624   6.915   0.728   0.263
 1907W        W 5625   9.314   8.431   1.668
 1908W        W 5626   0.927   2.713   7.020
 1909W        W 5627   8.448   0.859   1.408
 1910W        W 5628   6.445   9.310   1.730
 1911W        W 5629   0.925   9.871   1.179
 1912W        W 5630   0.465   5.966   0.297
 1913W        W 5631   1.345   8.937   1.270
 1914W        W 5632   0.253   3.579   0.289
 1915W        W 5633   7.938   4.557   1.388
 1916W        W 5634   5.139   1.226   0.237
 1917W        W 5635   3.175   4.572   0.436
 1918W        W 5636   2.207   3.594   7.899
 1919W        W 5637   4.260   7.582   1.352
 1920W        W 5638   7.936   2.728   0.875
 1921W        W 5639   7.107   9.377   1.244
 1922W        W 5640   7.887   5.174   7.297
 1923W        W 5641   4.095   3.746   1.194
 1924W        W 5642   5.628   0.281   7.494
 1925W        W 5643   1.416   0.889   6.908
 1926W        W 5644   6.530   7.545   0.830
 1927W        W 5645   4.241   6.132   0.278
 1928W        W 5646   9.922   5.210   7.400
 1929W        W 5647   7.610   2.289   0.438
 1930W        W 5648   9.999   2.799   7.786
 1931W        W 5649   8.090   9.982   7.322
 1932W        W 5650   1.704   0.733   6.960
 1933W        W 5651   6.174   3.191   7.990
 1934W        W 5652   1.697   7.900   6.985
 1935W        W 5653   7.037   7.491   6.570
 1936W        W 5654   1.731   9.001   6.873
 1937W        W 5655   7.001   7.534   7.856
 1938W        W 5656   5.559   0.872   6.885
 1939W        W 5657   1.780   6.928   7.788
 1940W        W 5658   4.110   9.926   0.843
 1941W        W 5659   0.885   5.631   6.871
 1942W        W 5660   6.171   7.925   7.969
 1943W        W 5661   5.012   5.579   7.054
 1944W        W 5662   1.242   6.643   7.769
 1945W        W 5663   7.139   8.350   7.799
 1946W        W 5664   7.075   7.965   0.303
 1947W        W 5665   3.778   4.694   6.354
 1948W        W 5666   9.982   3.328   1.871
 1949W        W 5667   4.058   9.505   7.898
 1950W        W 5668   2.334   8.427   0.331
 1951W        W 5669   6.585   5.990   0.312
 1952W        W 5670   3.154   7.597   1.200
 1953W        W 5671   1.412   3.706   7.305
 1954W        W 5672   9.950   0.376   7.306
 1955W        W 5673   7.463   5.605   0.402
 1956W        W 5674   9.953   9.384   1.327
 1957W        W 5675   3.294   5.018   0.349
 1958W        W 5676   4.606   1.339   0.851
 1959W        W 5677   2.225   4.252   0.921
 1960W        W 5678   6.068   8.411   7.360
 1961W        W 5679   3.322   4.117   7.021
 1962W        W 5680   0.774   7.383   0.273
 1963W        W 5681   5.192   9.884   0.903
 1964W        W 5682   9.359   4.690   0.363
 1965W        W 5683   9.870   0.732   1.219
 1966W        W 5684   9.773   4.264   6.889
 1967W        W 5685   9.016   5.481   7.984
 1968W        W 5686   8.504   8.900   7.905
 1969W        W 5687   3.718   0.434   0.418
 1970W        W 5688   1.840   9.043   1.245
 1971W        W 5689   6.606   2.637   7.984
 1972W        W 5690   0.250   8.892   0.862
 1973W        W 5691   0.294   8.007   7.965
 1974W        W 5692   9.020   1.266   1.275
 1975W        W 5693   6.047   5.207   1.316
 1976W        W 5694   4.747   9.321   0.933
 1977W        W 5695   2.327   9.326   0.411
 1978W        W 5696   1.292   3.660   0.329
 1979W        W 5697   2.346   5.091   0.466
 1980W        W 5698   0.925   8.095   1.197
 1981W        W 5699   4.690   9.495   1.853
 1982W        W 5700   7.881   6.533   0.911
 1983W        W 5701   2.807   6.487   7.042
 1984W        W 5702   5.195   2.685   1.362
 1985W        W 5703   4.145   6.909   0.395
 1986W        W 5704   0.759   0.731   6.962
 1987W        W 5705   4.176   5.998   7.355
 1988W        W 5706   3.582   8.993   6.839
 1989W        W 5707   1.232   8.524   6.951
 1990W        W 5708   0.891   8.978   1.377
 1991W        W 5709   0.841   2.351   7.482
 1992W        W 5710   1.899   2.681   7.315
 1993W        W 5711   2.835   8.393   6.913
 1994W        W 5712   7.421   9.916   7.840
 1995W        W 5713   9.324   3.218   6.852
 1996W        W 5714   0.946   5.610   1.335
 1997W        W 5715   9.497   1.287   6.916
 1998W        W 5716   8.425   9.990   1.205
 1999W        W 5717   4.752   9.330   0.393
 2000W        W 5718   1.413   9.794   6.957
 2001W        W 5719   3.210   3.639   6.999
 2002W        W 5720   6.631   8.948   1.311
 2003W        W 5721   6.620   7.584   1.384
 2004W        W 5722   4.614   6.608   6.881
 2005W        W 5723   2.330   5.631   7.004
 2006W        W 5724   9.808   8.982   0.837
 2007W        W 5725   7.500   7.901   6.945
 2008W        W 5726   2.284   7.111   0.420
 2009W        W 5727   9.898   6.094   0.886
 2010W        W 5728   4.068   7.031   1.331
 2011W        W 5729   9.768   6.913   0.716
 2012W        W 5730   2.283   8.012   7.004
 2013W        W 5731   4.216   5.011   7.025
 2014W        W 5732   8.836   9.939   0.330
 2015W        W 5733   5.067   3.176   7.921
 2016W        W 5734   1.268   2.788   1.351
 2017W        W 5735   5.030   0.849   7.505
 2018W        W 5736   0.249   7.584   0.332
 2019W        W 5737   6.144   7.023   7.423
 2020W        W 5738   5.979   0.879   6.832
 2021W        W 5739   2.253   8.453   1.254
 2022W        W 5740   3.773   6.117   1.287
 2023W        W 5741   5.175   2.302   7.841
 2024W        W 5742   9.967   7.536   7.486
 2025W        W 5743   6.100   1.900   7.521
 2026W        W 5744   6.969   6.623   7.888
 2027W        W 5745   6.140   7.903   0.745
 2028W        W 5746   8.512   9.392   6.838
 2029W        W 5747   7.464   6.602   7.504
 2030W        W 5748   5.168   8.871   6.945
 2031W        W 5749   0.391   4.154   1.739
 2032W        W 5750   0.951   7.113   7.499
 2033W        W 5751   5.203   3.159   1.297
 2034W        W 5752   2.691   9.043   6.855
 2035W        W 5753   7.619   1.409   6.958
 2036W        W 5754   4.635   6.483   7.396
 2037W        W 5755   1.896   4.200   7.831
 2038W        W 5756   8.008   7.938   6.509
 2039W        W 5757   9.866   3.783   7.413
 2040W        W 5758   5.091   9.041   7.315
 2041W        W 5759   4.704   6.950   7.879
 2042W        W 5760   6.112   8.909   7.808
 2043W        W 5761   8.913   9.295   7.881
 2044W        W 5762   2.717   0.731   1.290
 2045W        W 5763   7.516   2.740   7.417
 2046W        W 5764   9.798   5.053   0.919
 2047W        W 5765   0.754   6.576   7.811
 2048W        W 5766   7.970   5.685   7.000
 2049W        W 5767   4.529   1.206   7.909
 2050W        W 5768   0.398   4.586   7.773
 2051W        W 5769   2.652   5.590   7.529
 2052W        W 5770   5.049   7.452   0.835
 2053W        W 5771   4.753   8.562   7.009
 2054W        W 5772   5.675   7.483   6.508
 2055W        W 5773   4.670   0.720   7.436
 2056W        W 5774   2.170   2.242   6.959
 2057W        W 5775   8.089   4.647   7.299
 2058W        W 5776   0.942   1.288   7.871
 2059W        W 5777   0.321   8.927   7.307
 2060W        W 5778   8.893   9.388   7.455
 2061W        W 5779   0.898   7.037   7.917
 2062W        W 5780   8.972   9.390   6.449
 2063W        W 5781   1.751   9.944   7.470
 2064W        W 5782   7.578   3.226   0.300
 2065W        W 5783   4.720   0.300   6.934
 2066W        W 5784   8.005   8.397   7.377
 2067W        W 5785   9.844   2.839   7.521
 2068W        W 5786   7.551   3.307   7.951
 2069W        W 5787   7.427   1.388   7.827
 2070W        W 5788   2.178   7.094   1.791
 2071W        W 5789   2.349   7.538   0.272
 2072W        W 5790   9.483   5.011   1.293
 2073W        W 5791   6.984   1.379   0.875
 2074W        W 5792   0.794   7.020   1.649
 2075W        W 5793   6.572   5.601   0.713
 2076W        W 5794   3.314   0.454   6.870
 2077W        W 5795   9.476   8.064   0.260
 2078W        W 5796   5.151   7.416   6.831
 2079W        W 5797   0.791   5.572   0.453
 2080W        W 5798   0.762   9.776   0.388
 2081W        W 5799   1.862   0.814   1.279
 2082W        W 5800   0.327   7.884   6.354
 2083W        W 5801   4.262   0.434   7.808
 2084W        W 5802   2.695   3.225   1.871
 2085W        W 5803   9.785   1.872   1.357
 2086W        W 5804   8.987   0.443   0.832
 2087W        W 5805   4.553   5.211   7.359
 2088W        W 5806   1.304   6.967   0.794
 2089W        W 5807   6.649   9.383   7.421
 2090W        W 5808   0.377   3.270   0.780
 2091W        W 5809   1.775   9.933   1.258
 2092W        W 5810   3.262   2.675   7.942
 2093W        W 5811   4.187   2.836   6.950
 2094W        W 5812   3.151   4.071   0.241
 2095W        W 5813   3.584   3.174   7.990
 2096W        W 5814   8.419   2.368   0.371
 2097W        W 5815   4.137   1.674   1.277
 2098W        W 5816   5.174   4.250   7.438
 2099W        W 5817   4.232   3.104   7.439
 2100W        W 5818   9.792   9.339   6.859
 2101W        W 5819   7.970   2.316   0.850
 2102W        W 5820   8.997   3.773   0.715
 2103W        W 5821   2.180   8.336   7.051
 2104W        W 5822   3.578   6.021   0.719
 2105W        W 5823   9.469   1.826   1.224
 2106W        W 5824   6.117   3.781   7.314
 2107W        W 5825   3.642   3.163   1.345
 2108W        W 5826   4.581   3.310   0.923
 2109W        W 5827   4.256   8.056   0.891
 2110W        W 5828   4.587   9.962   7.917
 2111W        W 5829   3.599   7.014   0.343
 2112W        W 5830   5.175   8.432   7.399
 2113W        W 5831   0.898   3.221   0.821
 2114W        W 5832   8.046   4.742   7.813
 2115W        W 5833   6.568   9.773   6.942
 2116W        W 5834   1.382   7.396   6.981
 2117W        W 5835   6.987   3.298   0.266
 2118W        W 5836   3.294   1.683   0.391
 2119W        W 5837   2.686   5.188   0.792
 2120W        W 5838   7.472   0.464   6.824
 2121W        W 5839   6.007   1.200   0.280
 2122W        W 5840   7.432   0.949   0.760
 2123W        W 5841   0.845   2.172   0.424
 2124W        W 5842   0.794   5.037   0.464
 2125W        W 5843   1.861   8.571   1.678
 2126W        W 5844   7.955   5.049   1.326
 2127W        W 5845   5.137   9.512   0.464
 2128W        W 5846   4.659   5.024   7.840
 2129W        W 5847   1.787   3.115   6.363
 2130W        W 5848   7.131   9.811   7.805
 2131W        W 5849   3.325   7.880   7.361
 2132W        W 5850   2.298   8.921   7.479
 2133W        W 5851   8.951   2.228   0.392
 2134W        W 5852   8.813   2.833   7.769
 2135W        W 5853   1.853   8.050   7.938
 2136W        W 5854   5.547   7.932   1.339
 2137W        W 5855   3.169   7.899   0.776
 2138W        W 5856   6.990   6.036   0.920
 2139W        W 5857   1.309   5.104   0.430
 2140W        W 5858   3.322   3.226   1.785
 2141W        W 5859   8.057   6.061   0.372
 2142W        W 5860   6.136   9.488   7.771
 2143W        W 5861   9.504   3.718   0.294
 2144W        W 5862   9.462   2.740   0.834
 2145W        W 5863   1.788   2.811   6.865
 2146W        W 5864   4.677   0.303   0.290
 2147W        W 5865   4.146   9.481   7.414
 2148W        W 5866   1.883   8.089   0.758
 2149W        W 5867   0.448   9.318   7.472
 2150W        W 5868   1.888   5.550   7.028
 2151W        W 5869   1.279   8.820   0.400
 2152W        W 5870   3.224   3.295   0.431
 2153W        W 5871   9.332   4.723   0.893
 2154W        W 5872   6.019   5.956   7.766
 2155W        W 5873   1.348   4.628   1.307
 2156W        W 5874   6.470   2.207   0.757
 2157W        W 5875   8.002   6.460   7.430
 2158W        W 5876   9.845   7.578   0.927
 2159W        W 5877   9.785   5.481   0.907
 2160W        W 5878   9.776   2.792   0.274
 2161W        W 5879   0.378   6.435   7.449
 2162W        W 5880   9.521   2.222   7.824
 2163W        W 5881   9.787   2.275   0.707
 2164W        W 5882   3.726   7.097   7.481
 2165W        W 5883   3.304   7.046   1.857
 2166W        W 5884   1.793   6.640   7.427
 2167W        W 5885   6.585   2.289   7.351
 2168W        W 5886   2.622   0.305   7.404
 2169W        W 5887   1.261   2.722   7.462
 2170W        W 5888   5.563   6.155   0.318
 2171W        W 5889   1.265   9.446   1.396
 2172W        W 5890   4.587   2.174   7.929
 2173W        W 5891   9.338   5.227   7.902
 2174W        W 5892   6.598   2.731   6.879
 2175W        W 5893   8.402   1.373   0.423
 2176W        W 5894   8.000   0.303   0.360
 2177W        W 5895   5.115   4.724   0.850
 2178W        W 5896   5.648   0.306   7.857
 2179W        W 5897   6.044   4.671   0.730
 2180W        W 5898   6.050   7.430   6.909
 2181W        W 5899   6.533   2.646   0.280
 2182W        W 5900   6.482   5.025   6.907
 2183W        W 5901   8.083   2.332   0.420
 2184W        W 5902   9.354   5.576   7.324
 2185W        W 5903   2.313   7.004   6.863
 2186W        W 5904   0.383   8.482   0.284
 2187W        W 5905   2.719   8.345   0.711
 2188W        W 5906   7.891   6.581   1.323
 2189W        W 5907   8.023   0.868   0.351
 2190W        W 5908   1.778   9.886   0.716
 2191W        W 5909   9.964   1.812   7.357
 2192W        W 5910   7.077   1.708   7.867
 2193W        W 5911   2.317   7.142   7.929
 2194W        W 5912   4.216   5.047   0.803
 2195W        W 5913   7.097   3.677   1.190
 2196W        W 5914   6.595   5.479   1.809
 2197W        W 5915   1.708   1.776   7.480
 2198W        W 5916   0.317   0.883   7.863
 2199W        W 5917   9.389   5.111   0.822
 2200W        W 5918   1.404   2.240   0.723
 2201W        W 5919   0.416   8.862   7.765
 2202W        W 5920   8.425   0.420   7.995
 2203W        W 5921   8.367   3.773   6.873
 2204W        W 5922   6.932   7.922   7.853
 2205W        W 5923   1.817   2.338   7.806
 2206W        W 5924   6.176   1.413   7.522
 2207W        W 5925   1.901   7.871   7.527
 2208W        W 5926   7.043   9.862   7.419
 2209W        W 5927   3.606   5.142   7.786
 2210W        W 5928   4.560   6.662   7.815
 2211W        W 5929   7.966   7.618   7.470
 2212W        W 5930   1.815   3.256   1.864
 2213W        W 5931   2.361   2.169   0.275
 2214W        W 5932   6.171   1.425   0.877
 2215W        W 5933   2.655   8.065   0.383
 2216W        W 5934   5.657   5.156   0.397
 2217W        W 5935   4.060   6.628   1.252
 2218W        W 5936   9.434   8.437   0.872
 2219W        W 5937   7.519   1.193   0.247
 2220W        W 5938   4.704   3.695   7.384
 2221W        W 5939   3.595   5.021   6.909
 2222W        W 5940   1.859   5.001   7.813
 2223W        W 5941   0.916   7.135   1.356
 2224W        W 5942   4.210   0.263   0.325
 2225W        W 5943   0.800   5.218   7.382
 2226W        W 5944   3.224   1.722   0.872
 2227W        W 5945   0.881   7.872   7.514
 2228W        W 5946   2.297   2.198   1.331
 2229W        W 5947   8.828   7.519   1.307
 2230W        W 5948   0.325   5.001   0.434
 2231W        W 5949   9.488   1.894   0.801
 2232W        W 5950   7.597   7.607   7.818
 2233W        W 5951   2.365   0.834   7.001
 2234W        W 5952   7.570   8.386   0.864
 2235W        W 5953   3.614   6.620   6.862
 2236W        W 5954   8.874   4.245   7.487
 2237W        W 5955   3.186   2.354   6.502
 2238W        W 5956   4.123   3.735   7.409
 2239W        W 5957   6.936   9.302   7.457
 2240W        W 5958   2.195   2.620   1.327
 2241W        W 5959   6.942   2.727   6.965
 2242W        W 5960   7.972   9.814   7.968
 2243W        W 5961   6.044   2.742   7.473
 2244W        W 5962   1.832   3.200   7.881
 2245W        W 5963   3.802   3.707   1.338
 2246W        W 5964   1.370   0.440   0.719
 2247W        W 5965   4.655   0.902   6.882
 2248W        W 5966   8.361   6.430   7.046
 2249W        W 5967   4.281   9.956   7.952
 2250W        W 5968   4.092   5.561   7.042
 2251W        W 5969   4.586   8.908   7.050
 2252W        W 5970   8.350   6.037   0.864
 2253W        W 5971   5.030   2.737   7.805
 2254W        W 5972   8.466   6.468   0.265
 2255W        W 5973   0.250   7.108   7.766
 2256W        W 5974   4.580   0.263   0.856
 2257W        W 5975   5.163   4.596   7.947
 2258W        W 5976   4.218   6.186   0.751
 2259W        W 5977   1.756   7.049   6.872
 2260W        W 5978   1.372   9.875   7.874
 2261W        W 5979   8.487   6.580   7.798
 2262W        W 5980   5.667   1.291   0.265
 2263W        W 5981   4.242   7.481   6.954
 2264W        W 5982   2.687   5.057   0.420
 2265W        W 5983   5.621   9.501   6.928
 2266W        W 5984   6.544   3.217   1.761
 2267W        W 5985   0.386   7.000   6.530
 2268W        W 5986   9.425   1.323   0.857
 2269W        W 5987   1.900   6.099   1.183
 2270W        W 5988   7.608   5.512   1.382
 2271W        W 5989   3.588   9.906   0.303
 2272W        W 5990   0.876   9.450   0.847
 2273W        W 5991   2.344   1.255   0.351
 2274W        W 5992   2.279   6.661   7.977
 2275W        W 5993   5.021   8.524   0.825
 2276W        W 5994   9.347   1.395   7.419
 2277W        W 5995   7.023   5.049   0.794
 2278W        W 5996   3.716   1.823   7.316
 2279W        W 5997   5.169   4.576   6.908
 2280W        W 5998   3.619   6.106   7.517
 2281W        W 5999   8.974   2.840   1.398
 2282W        W 6000   5.564   2.780   0.461
 2283W        W 6001   8.897   3.113   7.516
 2284W        W 6002   0.330   7.884   0.435
 2285W        W 6003   7.575   5.678   7.956
 2286W        W 6004   7.607   4.182   0.399
 2287W        W 6005   8.406   3.280   6.966
 2288W        W 6006   9.902   7.075   1.261
 2289W        W 6007   6.157   6.505   1.189
 2290W        W 6008   3.137   6.525   1.277
 2291W        W 6009   6.608   1.731   7.422
 2292W        W 6010   3.304   4.647   0.841
 2293W        W 6011   1.307   1.781   0.269
 2294W        W 6012   7.973   9.960   1.722
 2295W        W 6013   6.543   0.872   0.288
 2296W        W 6014   1.686   5.647   1.237
 2297W        W 6015   4.734   0.388   7.477
 2298W        W 6016   3.644   4.059   0.312
 2299W        W 6017   1.745   4.658   1.322
 2300W        W 6018   2.222   7.395   7.887
 2301W        W 6019   8.493   8.942   0.854
 2302W        W 6020   0.715   0.400   1.256
 2303W        W 6021   6.143   7.567   0.892
 2304W        W 6022   3.803   7.030   0.793
 2305W        W 6023   8.412   2.668   0.821
 2306W        W 6024   3.164   7.384   7.478
 2307W        W 6025   7.481   1.807   7.814
 2308W        W 6026   5.210   7.892   0.895
 2309W        W 6027   6.631   4.575   1.412
 2310W        W 6028   0.913   5.237   1.244
 2311W        W 6029   1.348   3.141   1.344
 2312W        W 6030   1.765   2.175   0.249
 2313W        W 6031   8.950   0.943   6.829
 2314W        W 6032   4.754   3.589   7.971
 2315W        W 6033   2.625   4.183   1.290
 2316W        W 6034   4.080   2.799   6.517
 2317W        W 6035   2.642   9.302   1.342
 2318W        W 6036   2.341   9.898   1.352
 2319W        W 6037   2.237   4.262   0.346
 2320W        W 6038   9.414   7.135   0.886
 2321W        W 6039   7.001   2.205   0.772
 2322W        W 6040   0.814   8.857   0.832
 2323W        W 6041   7.948   9.500   7.322
 2324W        W 6042   5.020   1.849   7.421
 2325W        W 6043   4.129   4.206   0.342
 2326W        W 6044   8.569   9.320   0.892
 2327W        W 6045   5.042   6.434   7.419
 2328W        W 6046   3.600   8.507   6.869
 2329W        W 6047   3.308   2.698   0.709
 2330W        W 6048   5.638   1.901   0.461
 2331W        W 6049   4.758   4.067   1.827
 2332W        W 6050   0.755   1.759   1.683
 2333W        W 6051   9.787   0.302   0.427
 2334W        W 6052   0.739   0.385   7.499
 2335W        W 6053   0.926   2.338   1.331
 2336W        W 6054   9.923   8.829   0.396
 2337W        W 6055   2.267   3.693   0.870
 2338W        W 6056   7.570   1.679   7.443
 2339W        W 6057   6.958   6.628   1.187
 2340W        W 6058   7.957   8.087   0.341
 2341W        W 6059   8.909   3.296   0.724
 2342W        W 6060   8.409   5.512   7.933
 2343W        W 6061   0.359   1.894   7.802
 2344W        W 6062   7.473   9.375   0.452
 2345W        W 6063   3.758   0.377   7.507
 2346W        W 6064   5.012   3.305   7.011
 2347W        W 6065   8.536   1.418   7.879
 2348W        W 6066   3.753   2.664   0.375
 2349W        W 6067   7.473   2.638   7.790
 2350W        W 6068   8.058   2.152   7.465
 2351W        W 6069   4.209   8.419   0.242
 2352W        W 6070   0.948   6.452   1.740
 2353W        W 6071   4.251   7.012   7.455
 2354W        W 6072   7.884   6.956   0.428
 2355W        W 6073   3.715   1.870   7.902
 2356W        W 6074   5.167   7.500   7.974
 2357W        W 6075   3.761   3.750   7.395
 2358W        W 6076   1.211   6.128   0.430
 2359W        W 6077   5.220   2.322   0.817
 2360W        W 6078   9.357   7.428   7.786
 2361W        W 6079   9.389   6.075   0.256
 2362W        W 6080   8.060   7.043   0.798
 2363W        W 6081   2.800   7.077   0.387
 2364W        W 6082   5.990   8.026   1.244
 2365W        W 6083   3.273   5.109   0.773
 2366W        W 6084   9.776   8.035   0.331
 2367W        W 6085   5.548   9.896   6.467
 2368W        W 6086   5.659   7.615   7.469
 2369W        W 6087   1.363   6.537   0.894
 2370W        W 6088   3.719   5.622   6.919
 2371W        W 6089   5.607   2.226   7.021
 2372W        W 6090   4.158   4.668   7.012
 2373W        W 6091   8.836   6.456   6.973
 2374W        W 6092   0.747   3.308   6.531
 2375W        W 6093   0.303   3.131   0.288
 2376W        W 6094   7.915   4.667   0.856
 2377W        W 6095   7.408   2.378   7.790
 2378W        W 6096   8.049   7.860   7.413
 2379W        W 6097   2.264   1.272   6.924
 2380W        W 6098   6.069   4.526   0.342
 2381W        W 6099   0.853   2.190   0.874
 2382W        W 6100   8.534   7.874   0.241
 2383W        W 6101   6.938   5.089   7.439
 2384W        W 6102   2.209   1.222   7.993
 2385W        W 6103   3.573   7.094   6.534
 2386W        W 6104   8.091   6.493   0.268
 2387W        W 6105   1.875   1.268   0.715
 2388W        W 6106   3.253   6.570   6.933
 2389W        W 6107   8.541   6.499   1.251
 2390W        W 6108   1.201   9.893   1.326
 2391W        W 6109   0.900   4.611   7.889
 2392W        W 6110   5.649   0.809   0.346
 2393W        W 6111   1.878   9.909   7.863
 2394W        W 6112   0.460   8.421   0.811
 2395W        W 6113   9.918   1.841   7.055
 2396W        W 6114   0.950   1.784   0.277
 2397W        W 6115   5.036   5.479   7.468
 2398W        W 6116   4.187   9.972   0.436
 2399W        W 6117   7.120   0.716   1.233
 2400W        W 6118   6.158   3.318   0.351
 2401W        W 6119   9.502   2.778   7.969
 2402W        W 6120   3.319   3.323   6.956
 2403W        W 6121   9.360   1.402   7.860
 2404W        W 6122   9.814   9.962   7.962
 2405W        W 6123   1.223   3.323   0.345
 2406W        W 6124   3.275   6.095   0.457
 2407W        W 6125   8.849   3.116   6.921
 2408W        W 6126   8.071   9.320   7.863
 2409W        W 6127   6.475   3.197   7.331
 2410W        W 6128   3.621   4.710   7.881
 2411W        W 6129   0.790   6.051   1.325
 2412W        W 6130   8.443   9.294   7.369
 2413W        W 6131   0.931   3.740   7.980
 2414W        W 6132   0.448   4.173   1.402
 2415W        W 6133   0.859   4.655   0.875
 2416W        W 6134   1.336   1.777   6.872
 2417W        W 6135   0.722   4.710   7.413
 2418W        W 6136   3.291   8.340   1.396
 2419W        W 6137   5.983   3.137   0.785
 2420W        W 6138   2.793   0.406   6.959
 2421W        W 6139   7.967   7.526   6.553
 2422W        W 6140   7.413   5.077   0.779
 2423W        W 6141   5.226   1.669   6.977
 2424W        W 6142   2.804   1.768   0.820
 2425W        W 6143   4.600   1.371   6.977
 2426W        W 6144   1.237   2.658   7.784
 2427W        W 6145   8.550   4.623   1.285
 2428W        W 6146   4.065   9.785   1.234
 2429W        W 6147   5.653   0.730   6.481
 2430W        W 6148   0.761   4.283   1.391
 2431W        W 6149   5.544   1.283   6.925
 2432W        W 6150   9.422   4.201   1.662
 2433W        W 6151   6.534   8.505   6.845
 2434W        W 6152   1.719   1.742   0.734
 2435W        W 6153   5.685   6.629   7.491
 2436W        W 6154   0.275   2.699   6.826
 2437W        W 6155   8.876   8.845   1.231
 2438W        W 6156   3.775   3.325   6.836
 2439W        W 6157   1.275   6.092   0.801
 2440W        W 6158   2.686   1.715   6.874
 2441W        W 6159   8.972   6.615   7.980
 2442W        W 6160   3.224   0.903   7.773
 2443W        W 6161   2.773   1.408   7.823
 2444W        W 6162   5.032   7.967   7.919
 2445W        W 6163   5.995   6.095   0.713
 2446W        W 6164   2.708   6.538   0.926
 2447W        W 6165   2.329   4.178   6.869
 2448W        W 6166   7.124   9.888   1.687
 2449W        W 6167   0.328   5.687   7.403
 2450W        W 6168   0.380   9.337   0.871
 2451W        W 6169   8.829   3.300   6.357
 2452W        W 6170   7.087   6.613   6.498
 2453W        W 6171   8.837   4.713   0.756
 2454W        W 6172   1.902   4.751   0.822
 2455W        W 6173   5.672   8.058   7.513
 2456W        W 6174   4.233   1.219   0.767
 2457W        W 6175   7.064   5.127   0.250
 2458W        W 6176   4.131   6.544   7.474
 2459W        W 6177   1.777   5.155   7.506
 2460W        W 6178   8.545   8.361   0.412
 2461W        W 6179   5.544   2.241   7.974
 2462W        W 6180   7.039   9.895   0.420
 2463W        W 6181   7.068   5.617   0.265
 2464W        W 6182   7.870   0.307   7.010
 2465W        W 6183   5.129   7.560   7.465
 2466W        W 6184   1.731   3.698   7.920
 2467W        W 6185   0.398   3.642   7.502
 2468W        W 6186   7.938   6.470   7.950
 2469W        W 6187   0.362   8.430   6.849
 2470W        W 6188   3.257   2.342   0.416
 2471W        W 6189   0.458   0.726   7.041
 2472W        W 6190   1.743   8.505   1.362
 2473W        W 6191   4.645   7.982   7.326
 2474W        W 6192   7.385   0.349   7.782
 2475W        W 6193   2.294   5.133   7.799
 2476W        W 6194   3.690   7.969   6.882
 2477W        W 6195   9.951   5.585   1.301
 2478W        W 6196   1.800   3.228   7.327
 2479W        W 6197   1.772   6.456   0.256
 2480W        W 6198   0.717   3.251   1.252
 2481W        W 6199   6.637   1.282   7.323
 2482W        W 6200   6.922   5.152   6.972
 2483W        W 6201   6.039   2.828   1.218
 2484W        W 6202   1.802   5.222   6.929
 2485W        W 6203   0.741   9.939   0.807
 2486W        W 6204   5.640   8.364   7.008
 2487W        W 6205   9.409   9.767   7.004
 2488W        W 6206   0.840   2.342   7.024
 2489W        W 6207   9.521   7.521   0.750
 2490W        W 6208   3.584   5.083   1.356
 2491W        W 6209   5.036   5.172   7.952
 2492W        W 6210   5.007   3.618   1.248
 2493W        W 6211   6.015   0.935   0.714
 2494W        W 6212   2.219   6.505   7.459
 2495W        W 6213   4.577   4.156   7.385
 2496W        W 6214   5.136   3.313   7.319
 2497W        W 6215   7.506   7.122   7.958
 2498W        W 6216   8.090   5.697   0.453
 2499W        W 6217   8.964   7.027   7.034
 2500W        W 6218   3.177   7.103   0.849
 2501W        W 6219   5.591   2.258   1.367
 2502W        W 6220   7.917   9.967   1.407
 2503W        W 6221   6.021   6.065   1.402
 2504W        W 6222   5.578   4.553   7.519
 2505W        W 6223   0.462   5.961   7.904
 2506W        W 6224   8.002   8.540   0.712
 2507W        W 6225   3.782   2.253   7.515
 2508W        W 6226   3.656   0.843   6.830
 2509W        W 6227   0.889   5.055   6.913
 2510W        W 6228   1.679   4.718   0.336
 2511W        W 6229   7.085   9.847   7.052
 2512W        W 6230   7.602   3.239   7.366
 2513W        W 6231   6.624   4.088   7.403
 2514W        W 6232   1.779   7.570   7.386
 2515W        W 6233   1.857   3.730   1.222
 2516W        W 6234   7.080   1.751   6.826
 2517W        W 6235   1.873   0.374   7.490
 2518W        W 6236   1.309   0.272   7.317
 2519W        W 6237   8.019   5.989   1.223
 2520W        W 6238   2.292   9.807   0.296
 2521W        W 6239   5.675   6.920   1.866
 2522W        W 6240   6.664   6.661   7.403
 2523W        W 6241   8.415   7.099   7.947
 2524W        W 6242   2.689   9.021   1.201
 2525W        W 6243   0.938   8.471   7.431
 2526W        W 6244   2.819   4.525   1.339
 2527W        W 6245   1.781   2.376   0.824
 2528W        W 6246   1.792   0.355   0.736
 2529W        W 6247   2.656   5.575   7.857
 2530W        W 6248   1.255   2.627   6.954
 2531W        W 6249   8.464   3.653   7.308
 2532W        W 6250   8.823   0.438   7.416
 2533W        W 6251   9.031   8.394   7.488
 2534W        W 6252   4.581   6.137   1.398
 2535W        W 6253   0.297   7.441   0.800
 2536W        W 6254   2.226   1.245   7.466
 2537W        W 6255   2.244   8.879   0.283
 2538W        W 6256   1.901   1.744   0.420
 2539W        W 6257   7.491   9.957   1.185
 2540W        W 6258   8.544   4.281   7.494
 2541W        W 6259   5.566   4.065   7.482
 2542W        W 6260   2.775   6.502   1.270
 2543W        W 6261   4.197   1.700   6.944
 2544W        W 6262   0.252   3.112   7.018
 2545W        W 6263   5.000   4.639   0.373
 2546W        W 6264   5.485   9.407   7.882
 2547W        W 6265   4.662   8.420   7.990
 2548W        W 6266   9.498   6.435   6.918
 2549W        W 6267   5.680   5.121   1.292
 2550W        W 6268   7.932   2.342   7.911
 2551W        W 6269   3.803   7.394   1.246
 2552W        W 6270   3.806   3.264   0.322
 2553W        W 6271   9.904   8.366   7.801
 2554W        W 6272   4.613   8.445   0.459
 2555W        W 6273   1.210   8.382   1.276
 2556W        W 6274   1.786   4.096   6.959
 2557W        W 6275   8.060   0.313   7.934
 2558W        W 6276   8.840   6.151   1.346
 2559W        W 6277   2.155   7.608   7.464
 2560W        W 6278   2.700   5.700   7.049
 2561W        W 6279   9.003   1.308   7.833
 2562W        W 6280   6.564   1.848   7.905
 2563W        W 6281   0.950   9.456   1.689
 2564W        W 6282   1.828   7.534   7.948
 2565W        W 6283   7.548   2.354   1.371
 2566W        W 6284   6.588   6.631   6.981
 2567W        W 6285   7.591   5.027   0.349
 2568W        W 6286   6.167   4.190   7.992
 2569W        W 6287   2.729   2.830   7.468
 2570W        W 6288   7.939   2.727   1.233
 2571W        W 6289   4.233   5.085   0.333
 2572W        W 6290   2.736   6.038   0.751
 2573W        W 6291   0.893   6.930   6.972
 2574W        W 6292   6.108   3.106   6.832
 2575W        W 6293   2.258   2.786   7.998
 2576W        W 6294   2.661   8.435   1.394
 2577W        W 6295   1.319   6.164   1.201
 2578W        W 6296   9.986   7.530   1.404
 2579W        W 6297   7.918   0.299   1.368
 2580W        W 6298   5.701   8.853   0.260
 2581W        W 6299   3.120   1.322   7.296
 2582W        W 6300   1.357   6.524   7.053
 2583W        W 6301   7.049   6.939   7.802
 2584W        W 6302   5.098   7.909   6.850
 2585W        W 6303   9.361   8.437   1.328
 2586W        W 6304   1.667   9.872   7.047
 2587W        W 6305   1.864   9.461   0.800
 2588W        W 6306   0.911   7.528   7.882
 2589W        W 6307   3.260   6.148   1.227
 2590W        W 6308   4.075   0.886   6.881
 2591W        W 6309   8.463   9.931   0.279
 2592W        W 6310   1.881   1.738   1.738
 2593W        W 6311   0.775   8.337   0.246
 2594W        W 6312   8.042   9.858   6.943
 2595W        W 6313   5.983   9.314   1.181
 2596W        W 6314   5.222   7.096   7.929
 2597W        W 6315   1.313   4.262   7.004
 2598W        W 6316   1.235   0.385   7.880
 2599W        W 6317   9.905   7.428   0.376
 2600W        W 6318   6.106   6.665   6.966
 2601W        W 6319   6.654   6.434   1.213
 2602W        W 6320   0.831   2.681   0.749
 2603W        W 6321   3.658   9.430   6.998
 2604W        W 6322   9.949   3.236   7.334
 2605W        W 6323   2.174   3.684   7.389
 2606W        W 6324   1.855   0.791   7.795
 2607W        W 6325   7.922   8.864   1.327
 2608W        W 6326   8.452   4.607   0.300
 2609W        W 6327   8.835   8.390   6.925
 2610W        W 6328   6.156   4.728   7.975
 2611W        W 6329   7.871   1.683   6.370
 2612W        W 6330   1.694   8.386   6.951
 2613W        W 6331   4.181   7.084   0.767
 2614W        W 6332   1.712   8.046   0.298
 2615W        W 6333   5.992   6.190   7.310
 2616W        W 6334   6.000   1.244   6.980
 2617W        W 6335   0.951   0.948   7.992
 2618W        W 6336   8.554   1.891   1.386
 2619W        W 6337   7.892   3.227   7.429
 2620W        W 6338   2.827   9.288   0.714
 2621W        W 6339   0.851   0.430   6.965
 2622W        W 6340   0.744   0.927   7.474
 2623W        W 6341   6.992   6.466   0.874
 2624W        W 6342   2.247   8.494   7.782
 2625W        W 6343   9.804   1.842   7.998
 2626W        W 6344   7.865   2.623   7.822
 2627W        W 6345   2.291   5.021   6.951
 2628W        W 6346   7.912   7.074   1.223
 2629W        W 6347   9.429   1.216   0.399
 2630W        W 6348   2.747   0.298   7.792
 2631W        W 6349   0.306   0.403   1.200
 2632W        W 6350   4.569   9.918   6.962
 2633W        W 6351   0.926   0.256   0.922
 2634W        W 6352   9.322   9.873   7.303
 2635W        W 6353   3.598   7.412   7.057
 2636W        W 6354   2.706   9.371   0.346
 2637W        W 6355   4.600   6.957   1.211
 2638W        W 6356   8.466   6.008   7.765
 2639W        W 6357   4.761   7.003   7.055
 2640W        W 6358   3.208   7.524   6.993
 2641W        W 6359   0.290   6.604   7.980
 2642W        W 6360   9.421   6.602   1.384
 2643W        W 6361   8.444   2.825   1.251
 2644W        W 6362   8.476   4.688   0.804
 2645W        W 6363   3.614   1.255   0.708
 2646W        W 6364   7.580   8.517   1.320
 2647W        W 6365   7.127   4.188   6.954
 2648W        W 6366   9.376   1.752   7.858
 2649W        W 6367   3.728   9.774   7.508
 2650W        W 6368   5.487   3.238   1.374
 2651W        W 6369   8.958   7.107   0.787
 2652W        W 6370   4.058   3.749   6.919
 2653W        W 6371   6.436   4.095   6.905
 2654W        W 6372   4.567   6.105   7.851
 2655W        W 6373   6.168   6.971   7.975
 2656W        W 6374   5.047   0.339   7.825
 2657W        W 6375   4.626   9.335   7.381
 2658W        W 6376   8.908   8.085   7.493
 2659W        W 6377   2.779   9.782   7.819
 2660W        W 6378   9.817   1.278   7.404
 2661W        W 6379   8.818   5.956   0.281
 2662W        W 6380   4.595   1.882   7.385
 2663W        W 6381   5.069   0.749   0.779
 2664W        W 6382   0.313   0.871   0.816
 2665W        W 6383   8.358   7.433   0.270
 2666W        W 6384   7.933   2.154   1.181
 2667W        W 6385   6.092   5.229   0.913
 2668W        W 6386   9.415   0.435   0.849
 2669W        W 6387   7.870   7.873   0.881
 2670W        W 6388   6.116   7.446   1.215
 2671W        W 6389   0.311   9.998   0.317
 2672W        W 6390   6.621   3.219   0.417
 2673W        W 6391   5.104   5.631   7.854
 2674W        W 6392   4.068   3.210   1.287
 2675W        W 6393   5.510   5.971   7.054
 2676W        W 6394   0.301   4.113   0.813
 2677W        W 6395   6.999   4.210   1.349
 2678W        W 6396   5.549   6.586   1.367
 2679W        W 6397   7.015   2.288   1.244
 2680W        W 6398   7.394   5.624   7.354
 2681W        W 6399   6.126   8.861   0.247
 2682W        W 6400   8.338   2.625   0.423
 2683W        W 6401   1.862   1.683   7.828
 2684W        W 6402   7.605   6.552   7.765
 2685W        W 6403   8.501   8.005   7.850
 2686W        W 6404   3.181   7.862   6.952
 2687W        W 6405   5.565   0.742   7.356
 2688W        W 6406   5.555   9.886   7.875
 2689W        W 6407   6.582   4.170   7.814
 2690W        W 6408   5.609   7.142   0.883
 2691W        W 6409   0.736   1.393   0.723
 2692W        W 6410   4.581   6.034   6.539
 2693W        W 6411   8.468   6.605   7.378
 2694W        W 6412   5.686   8.870   7.873
 2695W        W 6413   5.128   9.918   7.973
 2696W        W 6414   3.590   2.635   6.832
 2697W        W 6415   7.948   3.790   6.939
 2698W        W 6416   3.140   8.545   6.486
 2699W        W 6417   1.290   6.533   0.300
 2700W        W 6418   0.402   2.166   6.872
 2701W        W 6419   7.865   2.807   7.464
 2702W        W 6420   4.696   5.617   1.192
 2703W        W 6421   5.198   2.667   0.818
 2704W        W 6422   9.388   9.350   0.469
 2705W        W 6423   6.927   2.691   7.388
 2706W        W 6424   2.649   6.177   7.408
 2707W        W 6425   8.822   6.580   1.305
 2708W        W 6426   0.918   4.554   0.341
 2709W        W 6427   0.367   6.152   1.771
 2710W        W 6428   4.082   1.328   7.982
 2711W        W 6429   9.793   8.439   6.886
 2712W        W 6430   0.310   7.618   7.518
 2713W        W 6431   9.296   3.252   7.330
 2714W        W 6432   7.915   6.042   1.803
 2715W        W 6433   7.043   3.574   6.837
 2716W        W 6434   2.823   2.758   0.722
 2717W        W 6435   5.620   8.569   1.360
 2718W        W 6436   3.578   4.633   0.450
 2719W        W 6437   6.445   7.482   7.009
 2720W        W 6438   6.941   3.099   7.407
 2721W        W 6439   1.237   5.496   0.890
 2722W        W 6440   9.823   8.813   7.433
 2723W        W 6441   4.673   8.985   0.778
 2724W        W 6442   4.093   6.658   7.771
 2725W        W 6443   9.845   9.805   7.389
 2726W        W 6444   8.515   7.041   1.348
 2727W        W 6445   5.592   2.375   1.684
 2728W        W 6446   2.183   3.266   6.985
 2729W        W 6447   9.900   8.015   7.982
 2730W        W 6448   8.457   9.824   7.301
 2731W        W 6449   7.467   6.061   0.911
 2732W        W 6450   7.480   9.383   7.013
 2733W        W 6451   5.627   5.016   0.808
 2734W        W 6452   8.913   8.857   0.864
 2735W        W 6453   7.537   0.727   0.248
 2736W        W 6454   1.771   5.687   0.747
 2737W        W 6455   3.252   7.911   7.821
 2738W        W 6456   6.963   1.391   0.264
 2739W        W 6457   5.690   2.159   7.416
 2740W        W 6458   0.370   0.736   7.355
 2741W        W 6459   5.199   9.381   7.505
 2742W        W 6460   0.892   8.019   0.284
 2743W        W 6461   2.839   1.724   7.873
 2744W        W 6462   4.659   3.574   0.411
 2745W        W 6463   2.186   6.644   6.980
 2746W        W 6464   9.013   6.040   7.890
 2747W        W 6465   5.712   4.622   6.956
 2748W        W 6466   0.304   4.723   7.304
 2749W        W 6467   4.687   9.013   1.355
 2750W        W 6468   4.708   5.496   0.847
 2751W        W 6469   6.473   9.479   6.825
 2752W        W 6470   2.720   7.969   7.503
 2753W        W 6471   6.056   9.842   0.447
 2754W        W 6472   0.813   9.881   6.919
 2755W        W 6473   5.137   6.577   0.437
 2756W        W 6474   3.326   9.806   7.348
 2757W        W 6475   0.897   7.061   6.385
 2758W        W 6476   1.340   7.859   1.327
 2759W        W 6477   1.703   1.374   1.207
 2760W        W 6478   8.480   6.976   7.023
 2761W        W 6479   4.174   8.027   7.798
 2762W        W 6480   7.920   7.523   7.796
 2763W        W 6481   1.894   8.374   0.750
 2764W        W 6482   7.387   4.049   0.930
 2765W        W 6483   5.155   9.387   0.921
 2766W        W 6484   4.076   2.764   0.855
 2767W        W 6485   0.853   4.053   7.391
 2768W        W 6486   3.323   7.104   0.244
 2769W        W 6487   9.502   8.342   7.397
 2770W        W 6488   9.397   0.766   7.046
 2771W        W 6489   6.537   6.653   0.375
 2772W        W 6490   6.623   1.779   0.284
 2773W        W 6491   2.158   6.115   0.818
 2774W        W 6492   8.955   1.367   7.387
 2775W        W 6493   7.105   2.378   6.992
 2776W        W 6494   3.624   1.257   7.304
 2777W        W 6495   3.252   5.668   7.993
 2778W        W 6496   5.631   3.157   0.297
 2779W        W 6497   1.744   2.233   7.420
 2780W        W 6498   5.093   1.428   0.753
 2781W        W 6499   5.048   9.854   0.345
 2782W        W 6500   1.324   8.389   0.825
 2783W        W 6501   4.751   1.818   1.373
 2784W        W 6502   9.799   6.610   6.852
 2785W        W 6503   7.126   0.298   0.826
 2786W        W 6504   0.846   3.281   0.253
 2787W        W 6505   2.800   0.372   0.332
 2788W        W 6506   9.309   3.673   0.744
 2789W        W 6507   1.401   7.530   1.317
 2790W        W 6508   9.363   8.919   7.030
 2791W        W 6509   5.162   9.780   7.328
 2792W        W 6510   9.966   1.253   0.799
 2793W        W 6511   6.054   4.138   1.309
 2794W        W 6512   8.379   4.571   7.520
 2795W        W 6513   1.306   3.684   6.847
 2796W        W 6514   6.475   0.730   6.988
 2797W        W 6515   7.042   8.350   6.970
 2798W        W 6516   4.571   3.227   7.469
 2799W        W 6517   6.011   0.814   0.263
 2800W        W 6518   4.751   6.914   7.508
 2801W        W 6519   0.951   4.525   1.277
 2802W        W 6520   2.684   2.200   1.320
 2803W        W 6521   4.676   3.590   6.897
 2804W        W 6522   3.198   1.677   1.356
 2805W        W 6523   2.634   0.743   6.849
 2806W        W 6524   9.375   9.330   1.874
 2807W        W 6525   3.578   0.845   6.375
 2808W        W 6526   2.835   3.711   1.244
 2809W        W 6527   1.867   4.260   0.855
 2810W        W 6528   9.002   6.442   0.295
 2811W        W 6529   3.593   7.007   6.996
 2812W        W 6530   8.468   0.800   7.431
 2813W        W 6531   4.084   9.326   6.934
 2814W        W 6532   2.621   7.978   1.393
 2815W        W 6533   1.205   9.377   7.994
 2816W        W 6534   8.487   7.972   0.724
 2817W        W 6535   1.770   9.413   0.299
 2818W        W 6536   0.306   6.188   1.384
 2819W        W 6537   9.977   0.423   0.710
 2820W        W 6538   7.994   1.410   7.920
 2821W        W 6539   4.094   0.365   0.770
 2822W        W 6540   6.641   2.857   7.490
 2823W        W 6541   8.995   4.067   1.260
 2824W        W 6542   9.305   5.688   0.845
 2825W        W 6543   6.099   7.894   6.967
 2826W        W 6544   8.396   7.487   0.909
 2827W        W 6545   1.271   8.470   0.452
 2828W        W 6546   2.210   9.831   7.889
 2829W        W 6547   3.175   2.741   1.851
 2830W        W 6548   0.930   4.197   6.881
 2831W        W 6549   1.897   8.917   7.414
 2832W        W 6550   6.549   7.083   0.926
 2833W        W 6551   5.954   4.639   7.298
 2834W        W 6552   7.119   5.629   6.936
 2835W        W 6553   9.442   7.384   1.648
 2836W        W 6554   2.172   1.729   0.330
 2837W        W 6555   5.634   1.674   0.807
 2838W        W 6556   1.888   3.262   1.282
 2839W        W 6557   5.197   1.893   1.403
 2840W        W 6558   1.901   8.372   0.409
 2841W        W 6559   9.355   4.579   6.848
 2842W        W 6560   8.927   3.732   7.843
 2843W        W 6561   6.467   3.159   0.739
 2844W        W 6562   3.250   8.095   6.390
 2845W        W 6563   6.046   2.777   0.838
 2846W        W 6564   2.196   5.050   1.392
 2847W        W 6565   6.536   7.139   7.386
 2848W        W 6566   5.013   8.835   0.365
 2849W        W 6567   5.973   2.159   7.804
 2850W        W 6568   0.246   6.047   0.838
 2851W        W 6569   2.625   5.978   6.988
 2852W        W 6570   3.760   8.032   7.930
 2853W        W 6571   4.649   9.506   1.275
 2854W        W 6572   4.281   4.681   7.324
 2855W        W 6573   8.547   8.453   1.206
 2856W        W 6574   1.373   2.831   0.284
 2857W        W 6575   9.389   6.439   7.810
 2858W        W 6576   1.720   3.173   6.885
 2859W        W 6577   9.831   4.144   1.390
 2860W        W 6578   5.168   3.605   7.952
 2861W        W 6579   8.495   5.226   0.238
 2862W        W 6580   4.646   6.527   0.894
 2863W        W 6581   5.630   4.061   1.667
 2864W        W 6582   7.920   0.251   1.876
 2865W        W 6583   5.484   7.035   1.209
 2866W        W 6584   3.194   9.517   7.476
 2867W        W 6585   5.611   9.287   1.772
 2868W        W 6586   1.287   0.866   1.295
 2869W        W 6587   4.667   7.529   6.908
 2870W        W 6588   2.853   0.841   7.833
 2871W        W 6589   5.123   4.199   6.963
 2872W        W 6590   8.985   8.851   6.908
 2873W        W 6591   7.933   3.250   0.742
 2874W        W 6592   4.632   2.192   0.844
 2875W        W 6593   0.762   6.511   6.926
 2876W        W 6594   1.689   5.192   1.287
 2877W        W 6595   6.105   6.664   0.884
 2878W        W 6596   8.860   2.292   0.774
 2879W        W 6597   5.967   3.611   7.837
 2880W        W 6598   1.376   5.508   7.951
 2881W        W 6599   7.902   3.105   7.921
 2882W        W 6600   9.464   2.331   7.518
 2883W        W 6601   8.044   5.564   1.270
 2884W        W 6602   8.543   9.948   6.836
 2885W        W 6603   0.813   1.241   1.207
 2886W        W 6604   6.001   5.177   7.983
 2887W        W 6605   1.279   4.088   1.381
 2888W        W 6606   5.602   6.454   6.448
 2889W        W 6607   9.821   7.132   7.978
 2890W        W 6608   9.420   4.121   0.764
 2891W        W 6609   1.299   9.364   6.426
 2892W        W 6610   2.777   6.539   7.378
 2893W        W 6611   7.522   8.877   7.505
 2894W        W 6612   6.070   9.930   0.815
 2895W        W 6613   1.419   8.056   7.984
 2896W        W 6614   4.075   0.847   0.919
 2897W        W 6615   3.166   4.662   6.965
 2898W        W 6616   9.794   7.020   6.420
 2899W        W 6617   2.152   1.767   6.899
 2900W        W 6618   5.486   9.364   7.385
 2901W        W 6619   4.544   0.431   1.246
 2902W        W 6620   6.186   4.653   6.483
 2903W        W 6621   6.172   4.738   1.229
 2904W        W 6622   1.900   0.736   6.374
 2905W        W 6623   1.351   5.201   7.423
 2906W        W 6624   0.282   2.260   0.266
 2907W        W 6625   0.775   8.353   1.882
 2908W        W 6626   9.414   5.162   1.764
 2909W        W 6627   3.697   9.450   7.940
 2910W        W 6628   4.187   6.637   0.710
 2911W        W 6629   8.088   7.016   7.802
 2912W        W 6630   4.594   7.046   0.462
 2913W        W 6631   9.923   6.527   7.991
 2914W        W 6632   3.726   2.303   0.450
 2915W        W 6633   2.692   1.884   1.303
 2916W        W 6634   3.638   6.552   1.318
 2917W        W 6635   4.695   0.788   0.294
 2918W        W 6636   9.948   2.642   1.285
 2919W        W 6637   5.096   6.184   1.362
 2920W        W 6638   1.402   3.249   7.870
 2921W        W 6639   1.193   1.198   6.947
 2922W        W 6640   9.834   4.704   1.312
 2923W        W 6641   9.812   0.756   6.527
 2924W        W 6642   7.445   4.554   0.334
 2925W        W 6643   7.942   5.160   0.366
 2926W        W 6644   4.541   8.017   0.255
 2927W        W 6645   3.686   1.282   1.278
 2928W        W 6646   6.433   3.102   1.289
 2929W        W 6647   1.694   7.414   6.565
 2930W        W 6648   5.686   7.893   0.263
 2931W        W 6649   3.804   0.276   6.960
 2932W        W 6650   0.470   5.965   6.972
 2933W        W 6651   5.139   6.613   7.804
 2934W        W 6652   1.872   9.422   6.862
 2935W        W 6653   4.750   3.666   6.541
 2936W        W 6654   3.648   6.515   0.710
 2937W        W 6655   5.645   8.855   1.392
 2938W        W 6656   6.616   8.948   0.336
 2939W        W 6657   2.351   8.442   0.908
 2940W        W 6658   2.798   0.951   0.354
 2941W        W 6659   0.260   6.913   7.477
 2942W        W 6660   5.133   6.109   0.291
 2943W        W 6661   7.992   9.507   0.838
 2944W        W 6662   8.403   2.252   7.971
 2945W        W 6663   4.198   5.153   7.481
 2946W        W 6664   4.175   5.100   1.220
 2947W        W 6665   2.711   4.205   7.897
 2948W        W 6666   4.164   8.486   0.782
 2949W        W 6667   9.459   9.906   7.772
 2950W        W 6668   9.853   3.154   0.918
 2951W        W 6669   6.157   0.271   7.494
 2952W        W 6670   5.224   4.694   7.316
 2953W        W 6671   7.486   9.909   0.718
 2954W        W 6672   9.036   0.888   0.283
 2955W        W 6673   2.733   9.295   6.865
 2956W        W 6674   5.005   6.154   7.516
 2957W        W 6675   9.502   9.978   1.664
 2958W        W 6676   9.333   2.298   1.649
 2959W        W 6677   5.078   0.381   7.388
 2960W        W 6678   1.830   0.331   6.890
 2961W        W 6679   4.592   1.739   0.876
 2962W        W 6680   9.783   3.629   6.949
 2963W        W 6681   6.574   5.613   7.493
 2964W        W 6682   6.917   3.614   7.367
 2965W        W 6683   5.189   8.455   7.782
 2966W        W 6684   5.510   9.852   1.292
 2967W        W 6685   0.419   0.260   7.845
 2968W        W 6686   9.977   6.506   0.278
 2969W        W 6687   3.104   4.161   7.492
 2970W        W 6688   9.505   1.193   1.377
 2971W        W 6689   2.339   0.420   0.295
 2972W        W 6690   8.069   6.158   7.389
 2973W        W 6691   6.529   9.895   0.402
 2974W        W 6692   7.089   4.694   7.835
 2975W        W 6693   2.184   0.890   0.320
 2976W        W 6694   8.889   4.644   6.979
 2977W        W 6695   5.134   5.676   1.299
 2978W        W 6696   2.693   9.932   0.822
 2979W        W 6697   2.810   9.029   0.371
 2980W        W 6698   7.486   7.859   0.278
 2981W        W 6699   2.317   3.149   7.368
 2982W        W 6700   6.545   1.369   1.278
 2983W        W 6701   8.992   1.198   6.896
 2984W        W 6702   4.246   4.073   6.996
 2985W        W 6703   3.331   8.910   1.336
 2986W        W 6704   0.859   4.107   7.843
 2987W        W 6705   3.657   0.947   7.846
 2988W        W 6706   6.910   9.893   0.891
 2989W        W 6707   2.774   6.150   7.780
 2990W        W 6708   1.346   4.524   7.394
 2991W        W 6709   2.200   8.434   7.493
 2992W        W 6710   4.681   5.010   0.253
 2993W        W 6711   0.914   2.664   1.302
 2994W        W 6712   7.867   1.697   7.848
 2995W        W 6713   8.469   1.781   1.752
 2996W        W 6714   1.833   7.486   7.054
 2997W        W 6715   2.679   4.661   0.922
 2998W        W 6716   0.414   6.550   0.265
 2999W        W 6717   8.909   4.621   0.257
 3000W        W 6718   6.596   6.438   0.792
 3001W        W 6719   5.989   5.625   0.741
 3002W        W 6720   7.492   7.492   0.791
 3003W        W 6721   0.446   2.825   7.310
 3004W        W 6722   7.965   1.725   7.330
 3005W        W 6723   7.434   0.715   7.496
 3006W        W 6724   4.545   5.678   7.981
 3007W        W 6725   4.719   0.360   7.910
 3008W        W 6726   3.196   5.512   7.035
 3009W        W 6727   9.386   9.454   6.922
 3010W        W 6728   9.780   1.291   0.262
 3011W        W 6729   8.078   9.514   0.414
 3012W        W 6730   7.442   2.256   7.057
 3013W        W 6731   5.081   9.821   1.391
 3014W        W 6732   8.439   1.757   7.490
 3015W        W 6733   7.563   1.684   0.401
 3016W        W 6734   8.404   4.078   0.438
 3017W        W 6735   1.352   1.192   0.780
 3018W        W 6736   1.778   8.371   7.519
 3019W        W 6737   7.421   7.932   7.922
 3020W        W 6738   3.661   8.824   7.961
 3021W        W 6739   7.549   5.663   6.853
 3022W        W 6740   4.657   5.550   6.868
 3023W        W 6741   2.742   3.594   0.881
 3024W        W 6742   1.315   6.567   7.453
 3025W        W 6743   9.778   9.409   7.817
 3026W        W 6744   9.453   6.962   0.291
 3027W        W 6745   2.711   5.537   0.722
 3028W        W 6746   8.479   3.151   0.360
 3029W        W 6747   3.801   7.613   0.893
 3030W        W 6748   8.877   9.317   0.799
 3031W        W 6749   0.395   0.794   1.394
 3032W        W 6750   7.493   5.522   0.783
 3033W        W 6751   0.930   7.597   6.895
 3034W        W 6752   0.456   9.835   7.434
 3035W        W 6753   9.411   1.904   0.291
 3036W        W 6754   0.309   4.567   0.899
 3037W        W 6755   8.856   8.401   0.819
 3038W        W 6756   9.902   2.372   6.831
 3039W        W 6757   8.430   2.146   1.258
 3040W        W 6758   5.145   0.951   1.382
 3041W        W 6759   4.132   1.820   1.686
 3042W        W 6760   6.657   6.179   0.717
 3043W        W 6761   6.933   1.317   6.913
 3044W        W 6762   9.047   4.732   7.392
 3045W        W 6763   5.640   9.359   0.880
 3046W        W 6764   7.538   1.333   0.844
 3047W        W 6765   8.028   3.575   1.369
 3048W        W 6766   2.338   9.002   1.383
 3049W        W 6767   8.355   6.971   1.833
 3050W        W 6768   0.425   3.255   7.782
 3051W        W 6769   0.737   7.958   7.029
 3052W        W 6770   2.190   3.313   1.207
 3053W        W 6771   1.349   7.396   0.264
 3054W        W 6772   6.429   5.238   1.383
 3055W        W 6773   7.400   4.646   7.436
 3056W        W 6774   3.275   2.243   6.874
 3057W        W 6775   4.106   2.218   7.349
 3058W        W 6776   8.418   1.244   7.389
 3059W        W 6777   6.012   7.076   0.870
 3060W        W 6778   0.351   5.117   7.021
 3061W        W 6779   2.620   7.119   6.882
 3062W        W 6780   6.073   5.686   1.354
 3063W        W 6781   4.053   3.726   0.323
 3064W        W 6782   1.746   3.186   0.462
 3065W        W 6783   6.189   2.302   6.971
 3066W        W 6784   5.043   0.304   0.308
 3067W        W 6785   3.602   9.354   7.402
 3068W        W 6786   4.751   2.347   0.263
 3069W        W 6787   6.438   6.949   1.275
 3070W        W 6788   3.699   7.448   7.802
 3071W        W 6789   2.828   3.115   7.391
 3072W        W 6790   3.658   0.249   0.909
 3073W        W 6791   7.893   3.660   0.281
 3074W        W 6792   2.779   8.541   0.383
 3075W        W 6793   6.078   5.200   6.994
 3076NA      NA 6794   3.662   8.907   0.334
 3077NA      NA 6795   9.411   6.024   7.524
 3078NA      NA 6796   4.700   5.129   7.025
 3079NA      NA 6797   6.000   4.135   0.846
 3080NA      NA 6798   1.238   6.991   6.425
 3081NA      NA 6799   6.958   2.715   7.789
 3082NA      NA 6800   0.368   4.740   7.012
 3083NA      NA 6801   7.484   0.335   7.477
 3084NA      NA 6802   6.049   9.374   6.985
 3085NA      NA 6803   0.816   9.492   7.331
 3086NA      NA 6804   2.660   4.149   6.919
 3087NA      NA 6805   4.718   6.027   7.325
 3088NA      NA 6806   8.868   2.330   1.332
 3089NA      NA 6807   7.500   3.636   1.230
 3090NA      NA 6808   2.147   9.816   0.755
 3091NA      NA 6809   7.393   3.139   0.820
 3092NA      NA 6810   3.616   2.336   6.927
 3093NA      NA 6811   1.341   8.478   7.850
 3094NA      NA 6812   9.765   1.270   7.984
 3095NA      NA 6813   9.958   0.829   7.012
 3096NA      NA 6814   3.670   5.680   0.868
 3097NA      NA 6815   6.457   7.454   7.456
 3098NA      NA 6816   7.553   0.719   1.400
 3099NA      NA 6817   7.385   4.536   6.824
 3100NA      NA 6818   8.501   3.252   7.488
 3101NA      NA 6819   1.777   2.709   0.912
 3102NA      NA 6820   7.993   2.727   6.825
 3103NA      NA 6821   3.747   3.303   0.761
 3104NA      NA 6822   8.511   6.059   1.400
 3105NA      NA 6823   9.292   2.251   0.769
 3106CL      CL 6824   9.343   2.351   0.415
 3107CL      CL 6825   6.552   3.269   7.855
 3108CL      CL 6826   1.266   3.764   0.833
 3109CL      CL 6827   5.195   0.844   7.012
 3110CL      CL 6828   8.969   4.604   1.243
 3111CL      CL 6829   0.373   1.386   7.447
 3112CL      CL 6830   2.361   9.901   7.437
 3113CL      CL 6831   4.100   5.707   7.959
 3114CL      CL 6832   0.893   5.212   7.883
 3115CL      CL 6833   5.008   8.856   1.343
 3116CL      CL 6834   5.580   8.912   7.391
 3117CL      CL 6835   8.365   6.990   6.561
 3118CL      CL 6836   5.583   2.722   0.790
 3119CL      CL 6837   2.244   0.330   7.942
 3120CL      CL 6838   9.942   7.558   7.816
 3121CL      CL 6839   8.941   7.544   7.998
 3122CL      CL 6840   7.596   2.657   1.319
 3123CL      CL 6841   8.875   1.764   7.782
 3124CL      CL 6842   7.571   9.485   0.861
 3125CL      CL 6843   0.375   4.553   1.228
 3126CL      CL 6844   9.968   1.701   0.259
 3127CL      CL 6845   5.504   3.214   0.832
 3128CL      CL 6846   0.886   9.947   7.959
 3129CL      CL 6847   6.482   3.632   1.238
 3130CL      CL 6848   8.503   9.300   0.278
 3131CL      CL 6849   1.701   7.072   1.328
 3132CL      CL 6850   1.868   9.464   7.819
 3133CL      CL 6851   5.610   3.306   6.844
 3134CL      CL 6852   8.535   7.466   1.243
 3135CL      CL 6853   1.425   8.978   6.919
  10.00000  10.00000   8.00000   0.00000   0.00000   0.00000   0.00000   0.00000   0.00000

