
integrator               = md               
dt                       = 0.020
nsteps                   = 1250000     
continuation             = yes

; Center-of-mass motion removal
comm-mode                = Linear
nstcomm                  = 100
comm-grps                = Membrane W_ION 

; Output
nstxout                  = 0
nstvout                  = 0
nstfout                  = 0
nstlog                   = 5000        
nstenergy                = 5000        
nstxout-compressed       = 50000       
compressed-x-precision   = 100

; Neighbor list and nonbonded interactions
cutoff-scheme            = Verlet
nstlist                  = 20
nsttcouple               = 20
nstpcouple               = 20
rlist                    = 1.35
verlet-buffer-tolerance  = -1
pbc                      = xyz

coulombtype              = reaction-field
rcoulomb                 = 1.1
epsilon_r                = 15
epsilon_rf               = 0

vdw-type                 = cutoff
vdw-modifier             = Potential-shift-verlet
rvdw                     = 1.1
DispCorr                 = No

; Temperature coupling
tcoupl                   = v-rescale
tc-grps                  = Membrane W_ION
tau_t                    = 1.0     1.0
ref_t                    = 310.15 310.15 

; Semi-isotropic pressure coupling
pcoupl                   = berendsen
pcoupltype               = semiisotropic
tau_p                    = 5.0
compressibility          = 4.5e-5 4.5e-5
ref_p                    = 1.0 1.0

; Continue velocities from NVT
gen_vel                  = no

; Constraints
constraints              = none
constraint-algorithm     = Lincs
lincs-iter               = 1
lincs-order              = 4
lincs-warnangle          = 90
